117
Lattice="8.535340639 0.0 0.0 0.0 11.380454186 0.0 0.0 0.0 14.225567732" Properties=species:S:1:pos:R:3 REF_energy=-1094.8750554 REF_stress="-0.0015125236310026676 -0.00030062228704816715 -0.001466842025710328 -0.00030062228704816715 -0.00461909748521029 0.0014221590618781299 -0.001466842025710328 0.0014221590618781299 -0.0019115994830025175" generation=7 source_path=V-Cr-Ti-W-Zr/Fixed_Engrads/vcrtiwzr_fin_engrads/job_gen_7-2025-02-12/Cr/Cr117_tri-vacancy_idx_3427 date_processed=2025-02-12T16:43:40.980844 structure_id=20196 structure_name=struct_id_20196 variance=0.06801167875528336 energy=-1093.3306477864583 probability=1.0 loss=0.0680115818977356 final=T initial_variance=0.0098640201613307 final_variance=0.0680115818977356 optimization_method=gradient-based parent_structure_name=struct_id_20196 pbc="T T T"
Cr       1.49212968       1.37710732       1.31177155
Cr       1.34614614       4.26467355       1.43853610
Cr       2.89552796       2.85491472       2.75906514
Cr       2.76725413       5.63524115       2.87391850
Cr       8.46890884       5.59210074       2.88184529
Cr      -0.00125820       2.99171805       2.78476806
Cr       4.14836026       4.20607505       6.87927410
Cr       2.96821603       0.05482697       5.74958102
Cr       4.42750261       1.29102987       1.50150902
Cr       4.28248443       4.14819895       1.34799649
Cr       7.39008634       1.29047025       1.14183074
Cr       7.17546706       4.22799325       1.40410493
Cr       5.88465625       2.75989289       2.83125808
Cr       5.55134315       2.85864679       5.65915220
Cr       8.35330346       5.75756297       5.69666157
Cr      -0.01499663       2.98126999       5.55655815
Cr       0.07904919       5.77158791       0.02242237
Cr       4.33976315       1.28208070       4.08537901
Cr       1.43184223       1.43386110       4.16839691
Cr       1.42333987       4.35943369       4.21128527
Cr       2.74039903       2.83867691       5.71302130
Cr       2.78994287       5.64403287       5.63276903
Cr       4.25734192       4.21081007       4.17449645
Cr       8.53101442       0.04134130       5.65773349
Cr       1.30677229       4.32638555       7.05688819
Cr       4.27308966       1.54447286       7.12765968
Cr       5.65342292      -0.03051984       5.59607679
Cr       6.94658246       4.33802747       6.95141395
Cr       5.57330952       5.64803240       5.56400747
Cr       7.01589648       4.34021594       4.26993630
Cr       7.15531000       1.31805694       4.01272432
Cr       1.37757738       1.50608686       6.99956031
Cr       6.97410481       1.45845607       6.99470485
Cr       1.22377165       1.43778434       9.74060905
Cr       1.42432713       4.26186234       9.93594543
Cr       2.85227006       2.93613742       8.53210322
Cr       5.70317263       0.00580182      11.35978408
Cr       4.26607215       4.25258300       9.96388671
Cr       4.23282909       1.50595874       9.99796073
Cr       0.04574208       2.84372782       8.61956192
Cr       7.09153760       1.50324110       9.98391634
Cr       5.63875220       2.93370546       8.54084593
Cr       7.12316895       4.25759106       9.80413446
Cr       5.62063697       5.63427331       8.53718786
Cr       2.88147392       5.67998973      11.30779529
Cr       8.48672607       2.86686129      11.52759358
Cr       8.49054871       5.45432389      11.24423819
Cr       2.67818191       2.82481962      11.36023385
Cr       1.19999144       1.39096853      13.19097959
Cr       1.42286398       4.26867334      12.81179180
Cr       4.13914248       1.47748197      12.78309379
Cr       5.66534450       2.79013468      11.56288710
Cr       7.10541311       1.45186150      12.79942699
Cr       0.05269321      11.24446193      11.29311352
Cr       4.24079267       4.23334341      12.86468472
Cr       7.20496977       4.21223229      12.87428013
Cr       2.93193183       0.15489534       8.48157312
Cr       5.84388439      11.30068589       8.65717328
Cr       2.67653595       2.87968979       0.01392250
Cr       5.67466595       2.82034427       0.01675728
Cr       1.37847738       7.12108276       1.41835515
Cr       1.30175841       9.96554064       1.42310382
Cr       2.73344941       8.38966872       2.87776248
Cr       4.28181770       9.77816778       1.46359079
Cr       8.43689046       8.43868270      14.09271023
Cr       5.69073147       5.57165552       2.72065895
Cr       5.51816078      11.29135940      14.12889571
Cr       4.24253657       7.06781978       1.37981934
Cr       8.51372880       8.49943084       2.83081952
Cr       7.05728795       7.08100425       1.41940346
Cr       7.05448080       9.89525920       1.47655213
Cr       5.69611297       8.54729156       2.87278250
Cr       5.73890366       8.60310443      14.14780510
Cr       5.76391240      11.32322706       2.77569333
Cr       4.33938036       9.82441666       4.36352508
Cr       4.17069828       6.95279775       4.18999156
Cr       1.45742724       7.07396205       4.32397955
Cr       1.54003107      10.04751316       4.38724203
Cr       2.70361570       8.40844104       5.76788507
Cr       2.84481346      11.29957803       2.80470610
Cr       7.14732376       9.94759611       4.31347178
Cr       8.44301399       8.48871221       5.61583815
Cr       7.14027066       6.95230402       4.28678888
Cr       7.03680289      10.04371912       7.17979835
Cr       5.65183393       8.40490868       5.56858444
Cr       4.24160356       9.93986457       7.15839818
Cr       5.63615556       5.62580338      14.15592573
Cr       2.82963772      11.25293095       0.11812983
Cr       1.41920227       7.10293971       9.79921346
Cr       1.51143320       9.95610745       9.89771444
Cr       2.82948908       8.47022160       8.50817940
Cr       4.35000998       9.88262992      10.05874360
Cr       2.70277513       0.00252315      11.37401027
Cr       4.17027712       7.05852515       9.99264129
Cr       2.89791525       5.64851401       8.59529370
Cr       5.70852453       8.52162181      11.39023094
Cr       1.28072643       9.92240357       6.98861275
Cr       8.50211697       8.67826982       8.56645347
Cr       8.44681748       5.70302323       8.48162168
Cr       5.81877741       5.64075234      11.35664686
Cr       7.13785958       7.08021051       9.89441239
Cr       5.69029131       8.45085085       8.62374190
Cr       7.18355755       9.85459134      10.03185323
Cr       0.00313098       0.08949832       8.50858736
Cr       7.10626103       7.07379891      12.76385538
Cr       4.23423967       6.95749373      12.79933826
Cr       1.44414290       7.10030845      12.69051983
Cr       1.65784624      10.01322091      12.75951495
Cr       2.88294523       8.49257958      11.46473367
Cr       4.26826786       9.96138484      12.78685379
Cr       7.16966482      10.02040177      12.77777514
Cr       0.11417061       8.37724527      11.29407229
Cr       2.77920200       8.64225675      14.15027418
Cr       2.80057458       5.75397158       0.03811465
Cr       4.17105332       7.08510600       7.01073843
Cr       7.08818015       7.19804193       7.19739825
Cr       1.23018568       7.23094292       7.20446711
