117
Lattice="8.535340639 0.0 0.0 0.0 11.380454186 0.0 0.0 0.0 14.225567732" Properties=species:S:1:pos:R:3 loss=0.009863737970590591 final=T variance=0.009863737970590591 parent_id=20196 REF_energy=-1094.8750554 REF_stress="-0.0015125236310026676 -0.00030062228704816715 -0.001466842025710328 -0.00030062228704816715 -0.00461909748521029 0.0014221590618781299 -0.001466842025710328 0.0014221590618781299 -0.0019115994830025175" generation=7 config_type=aa-gradient probability=1.0 source_path=V-Cr-Ti-W-Zr/Fixed_Engrads/vcrtiwzr_fin_engrads/job_gen_7-2025-02-12/Cr/Cr117_tri-vacancy_idx_3427 temperature=1000.0 min_distance=1.5 n_iterations=1 structure_id=22088 learning_rate=0.01 date_processed=2025-02-12T16:43:40.980844 final_variance=0.009863905608654022 structure_name=struct_id_22088 initial_variance=0.009863905608654022 include_probability=F optimization_method=gradient-based parent_structure_name=struct_id_20196 energy=-1094.5918782552083 pbc="T T T"
Cr       1.49318000       1.41395000       1.36705000
Cr       1.39373000       4.28212000       1.50082000
Cr       2.93771000       2.88650000       2.78519000
Cr       2.79221000       5.67156000       2.87815000
Cr       8.51629000       5.65550000       2.89072000
Cr       0.02289000       2.98438000       2.82852000
Cr       4.16082000       4.22881000       6.91203000
Cr       2.97581000       0.07948000       5.76200000
Cr       4.43991000       1.32387000       1.48039000
Cr       4.30586000       4.13912000       1.37676000
Cr       7.38074000       1.32836000       1.06527000
Cr       7.13764000       4.21643000       1.43286000
Cr       5.84946000       2.76507000       2.85250000
Cr       5.55791000       2.87284000       5.66351000
Cr       8.42369000       5.79410000       5.76424000
Cr       0.00726000       2.97661000       5.61767000
Cr       0.11091000       5.78760000       0.00326000
Cr       4.35103000       1.31467000       4.09913000
Cr       1.44520000       1.41626000       4.15170000
Cr       1.44477000       4.37690000       4.22744000
Cr       2.78861000       2.89045000       5.73549000
Cr       2.79546000       5.64968000       5.68155000
Cr       4.27807000       4.21257000       4.17152000
Cr       8.49048000       0.07222000       5.62514000
Cr       1.31779000       4.33484000       7.07520000
Cr       4.28121000       1.54123000       7.16476000
Cr       5.64985000       0.00429000       5.61610000
Cr       6.97305000       4.35052000       7.01044000
Cr       5.58981000       5.69756000       5.60141000
Cr       7.02572000       4.32731000       4.26617000
Cr       7.18616000       1.33507000       4.01661000
Cr       1.41840000       1.56558000       7.03945000
Cr       7.01941000       1.48811000       7.04491000
Cr       1.24433000       1.46176000       9.79621000
Cr       1.38775000       4.29423000       9.98112000
Cr       2.87445000       2.94308000       8.53399000
Cr       5.77324000       0.02781000      11.40904000
Cr       4.27860000       4.25062000       9.95888000
Cr       4.26771000       1.51101000      10.02936000
Cr       0.06751000       2.85774000       8.62222000
Cr       7.10807000       1.52509000      10.02784000
Cr       5.67819000       2.93927000       8.56305000
Cr       7.11759000       4.28413000       9.82435000
Cr       5.64519000       5.64900000       8.55010000
Cr       2.87098000       5.69346000      11.34740000
Cr       8.44617000       2.83604000      11.54151000
Cr       8.53057000       5.49495000      11.27415000
Cr       2.70270000       2.83558000      11.37054000
Cr       1.21593000       1.35743000      13.22134000
Cr       1.44336000       4.30787000      12.85598000
Cr       4.14736000       1.49186000      12.78765000
Cr       5.64337000       2.79698000      11.52418000
Cr       7.05599000       1.50005000      12.85286000
Cr       0.05955000      11.25104000      11.34910000
Cr       4.26149000       4.25669000      12.87572000
Cr       7.21879000       4.22394000      12.85857000
Cr       2.99432000       0.17829000       8.47244000
Cr       5.86783000      11.31763000       8.65698000
Cr       2.70747000       2.84722000       0.04324000
Cr       5.68585000       2.80076000       0.05235000
Cr       1.41290000       7.17086000       1.46688000
Cr       1.34865000       9.93655000       1.45045000
Cr       2.71032000       8.44403000       2.87616000
Cr       4.25609000       9.79416000       1.50357000
Cr       8.47490000       8.44860000      14.14391000
Cr       5.73823000       5.61393000       2.72590000
Cr       5.59239000      11.34329000      14.15065000
Cr       4.19635000       7.09757000       1.43340000
Cr       8.51994000       8.53759000       2.79418000
Cr       7.08752000       7.14159000       1.48080000
Cr       7.05779000       9.93181000       1.50531000
Cr       5.69421000       8.55176000       2.86837000
Cr       5.75855000       8.59348000      14.16867000
Cr       5.77464000      11.30006000       2.76358000
Cr       4.32629000       9.83730000       4.36618000
Cr       4.19630000       7.00392000       4.19280000
Cr       1.49121000       7.11810000       4.33552000
Cr       1.52300000      10.03445000       4.35837000
Cr       2.72793000       8.42245000       5.78840000
Cr       2.86387000      11.32587000       2.80088000
Cr       7.17239000       9.93771000       4.28094000
Cr       8.43542000       8.50132000       5.65576000
Cr       7.16182000       6.97457000       4.31318000
Cr       7.05979000      10.06992000       7.23568000
Cr       5.64038000       8.41822000       5.58271000
Cr       4.25062000       9.92127000       7.19685000
Cr       5.68239000       5.65338000      14.15547000
Cr       2.85582000      11.30586000       0.15162000
Cr       1.42735000       7.10738000       9.86607000
Cr       1.56772000       9.98979000       9.92708000
Cr       2.85129000       8.50066000       8.53572000
Cr       4.36912000       9.89680000      10.06768000
Cr       2.75897000       0.01662000      11.38992000
Cr       4.20470000       7.06530000      10.00864000
Cr       2.91352000       5.68880000       8.58732000
Cr       5.73988000       8.52348000      11.37036000
Cr       1.31300000       9.95825000       7.04112000
Cr       8.52399000       8.67435000       8.62223000
Cr       8.48773000       5.74525000       8.53706000
Cr       5.82177000       5.65340000      11.35830000
Cr       7.17070000       7.09050000       9.92092000
Cr       5.69936000       8.49876000       8.63095000
Cr       7.17454000       9.91180000      10.07438000
Cr       0.01214000       0.11800000       8.51264000
Cr       7.12929000       7.05446000      12.82901000
Cr       4.25558000       7.00947000      12.80739000
Cr       1.48969000       7.11523000      12.71207000
Cr       1.67587000      10.01962000      12.75254000
Cr       2.91663000       8.53237000      11.45790000
Cr       4.25055000       9.98425000      12.81319000
Cr       7.18100000      10.04249000      12.79604000
Cr       0.15412000       8.39755000      11.33338000
Cr       2.81185000       8.63058000      14.16063000
Cr       2.80666000       5.77159000       0.05145000
Cr       4.18308000       7.08605000       7.05002000
Cr       7.08624000       7.22660000       7.19308000
Cr       1.27900000       7.25524000       7.22187000
117
Lattice="8.535340639 0.0 0.0 0.0 11.380454186 0.0 0.0 0.0 14.225567732" Properties=species:S:1:pos:R:3 loss=0.009863737970590591 final=T variance=0.009863737970590591 parent_id=20196 REF_energy=-1094.8750554 REF_stress="-0.0015125236310026676 -0.00030062228704816715 -0.001466842025710328 -0.00030062228704816715 -0.00461909748521029 0.0014221590618781299 -0.001466842025710328 0.0014221590618781299 -0.0019115994830025175" generation=7 config_type=aa-gradient probability=1.0 source_path=V-Cr-Ti-W-Zr/Fixed_Engrads/vcrtiwzr_fin_engrads/job_gen_7-2025-02-12/Cr/Cr117_tri-vacancy_idx_3427 temperature=1000.0 min_distance=1.5 n_iterations=1 structure_id=22088 learning_rate=0.01 date_processed=2025-02-12T16:43:40.980844 final_variance=0.009863905608654022 structure_name=struct_id_22088 initial_variance=0.009863905608654022 include_probability=F optimization_method=gradient-based parent_structure_name=struct_id_20196 energy=-1094.5918782552083 step=0 pbc="T T T"
Cr       1.49318000       1.41395000       1.36705000
Cr       1.39373000       4.28212000       1.50082000
Cr       2.93771000       2.88650000       2.78519000
Cr       2.79221000       5.67156000       2.87815000
Cr       8.51629000       5.65550000       2.89072000
Cr       0.02289000       2.98438000       2.82852000
Cr       4.16082000       4.22881000       6.91203000
Cr       2.97581000       0.07948000       5.76200000
Cr       4.43991000       1.32387000       1.48039000
Cr       4.30586000       4.13912000       1.37676000
Cr       7.38074000       1.32836000       1.06527000
Cr       7.13764000       4.21643000       1.43286000
Cr       5.84946000       2.76507000       2.85250000
Cr       5.55791000       2.87284000       5.66351000
Cr       8.42369000       5.79410000       5.76424000
Cr       0.00726000       2.97661000       5.61767000
Cr       0.11091000       5.78760000       0.00326000
Cr       4.35103000       1.31467000       4.09913000
Cr       1.44520000       1.41626000       4.15170000
Cr       1.44477000       4.37690000       4.22744000
Cr       2.78861000       2.89045000       5.73549000
Cr       2.79546000       5.64968000       5.68155000
Cr       4.27807000       4.21257000       4.17152000
Cr       8.49048000       0.07222000       5.62514000
Cr       1.31779000       4.33484000       7.07520000
Cr       4.28121000       1.54123000       7.16476000
Cr       5.64985000       0.00429000       5.61610000
Cr       6.97305000       4.35052000       7.01044000
Cr       5.58981000       5.69756000       5.60141000
Cr       7.02572000       4.32731000       4.26617000
Cr       7.18616000       1.33507000       4.01661000
Cr       1.41840000       1.56558000       7.03945000
Cr       7.01941000       1.48811000       7.04491000
Cr       1.24433000       1.46176000       9.79621000
Cr       1.38775000       4.29423000       9.98112000
Cr       2.87445000       2.94308000       8.53399000
Cr       5.77324000       0.02781000      11.40904000
Cr       4.27860000       4.25062000       9.95888000
Cr       4.26771000       1.51101000      10.02936000
Cr       0.06751000       2.85774000       8.62222000
Cr       7.10807000       1.52509000      10.02784000
Cr       5.67819000       2.93927000       8.56305000
Cr       7.11759000       4.28413000       9.82435000
Cr       5.64519000       5.64900000       8.55010000
Cr       2.87098000       5.69346000      11.34740000
Cr       8.44617000       2.83604000      11.54151000
Cr       8.53057000       5.49495000      11.27415000
Cr       2.70270000       2.83558000      11.37054000
Cr       1.21593000       1.35743000      13.22134000
Cr       1.44336000       4.30787000      12.85598000
Cr       4.14736000       1.49186000      12.78765000
Cr       5.64337000       2.79698000      11.52418000
Cr       7.05599000       1.50005000      12.85286000
Cr       0.05955000      11.25104000      11.34910000
Cr       4.26149000       4.25669000      12.87572000
Cr       7.21879000       4.22394000      12.85857000
Cr       2.99432000       0.17829000       8.47244000
Cr       5.86783000      11.31763000       8.65698000
Cr       2.70747000       2.84722000       0.04324000
Cr       5.68585000       2.80076000       0.05235000
Cr       1.41290000       7.17086000       1.46688000
Cr       1.34865000       9.93655000       1.45045000
Cr       2.71032000       8.44403000       2.87616000
Cr       4.25609000       9.79416000       1.50357000
Cr       8.47490000       8.44860000      14.14391000
Cr       5.73823000       5.61393000       2.72590000
Cr       5.59239000      11.34329000      14.15065000
Cr       4.19635000       7.09757000       1.43340000
Cr       8.51994000       8.53759000       2.79418000
Cr       7.08752000       7.14159000       1.48080000
Cr       7.05779000       9.93181000       1.50531000
Cr       5.69421000       8.55176000       2.86837000
Cr       5.75855000       8.59348000      14.16867000
Cr       5.77464000      11.30006000       2.76358000
Cr       4.32629000       9.83730000       4.36618000
Cr       4.19630000       7.00392000       4.19280000
Cr       1.49121000       7.11810000       4.33552000
Cr       1.52300000      10.03445000       4.35837000
Cr       2.72793000       8.42245000       5.78840000
Cr       2.86387000      11.32587000       2.80088000
Cr       7.17239000       9.93771000       4.28094000
Cr       8.43542000       8.50132000       5.65576000
Cr       7.16182000       6.97457000       4.31318000
Cr       7.05979000      10.06992000       7.23568000
Cr       5.64038000       8.41822000       5.58271000
Cr       4.25062000       9.92127000       7.19685000
Cr       5.68239000       5.65338000      14.15547000
Cr       2.85582000      11.30586000       0.15162000
Cr       1.42735000       7.10738000       9.86607000
Cr       1.56772000       9.98979000       9.92708000
Cr       2.85129000       8.50066000       8.53572000
Cr       4.36912000       9.89680000      10.06768000
Cr       2.75897000       0.01662000      11.38992000
Cr       4.20470000       7.06530000      10.00864000
Cr       2.91352000       5.68880000       8.58732000
Cr       5.73988000       8.52348000      11.37036000
Cr       1.31300000       9.95825000       7.04112000
Cr       8.52399000       8.67435000       8.62223000
Cr       8.48773000       5.74525000       8.53706000
Cr       5.82177000       5.65340000      11.35830000
Cr       7.17070000       7.09050000       9.92092000
Cr       5.69936000       8.49876000       8.63095000
Cr       7.17454000       9.91180000      10.07438000
Cr       0.01214000       0.11800000       8.51264000
Cr       7.12929000       7.05446000      12.82901000
Cr       4.25558000       7.00947000      12.80739000
Cr       1.48969000       7.11523000      12.71207000
Cr       1.67587000      10.01962000      12.75254000
Cr       2.91663000       8.53237000      11.45790000
Cr       4.25055000       9.98425000      12.81319000
Cr       7.18100000      10.04249000      12.79604000
Cr       0.15412000       8.39755000      11.33338000
Cr       2.81185000       8.63058000      14.16063000
Cr       2.80666000       5.77159000       0.05145000
Cr       4.18308000       7.08605000       7.05002000
Cr       7.08624000       7.22660000       7.19308000
Cr       1.27900000       7.25524000       7.22187000
117
Lattice="8.535340639 0.0 0.0 0.0 11.380454186 0.0 0.0 0.0 14.225567732" Properties=species:S:1:pos:R:3 loss=0.01437920518219471 final=T variance=0.01437920518219471 parent_id=20196 REF_energy=-1094.8750554 REF_stress="-0.0015125236310026676 -0.00030062228704816715 -0.001466842025710328 -0.00030062228704816715 -0.00461909748521029 0.0014221590618781299 -0.001466842025710328 0.0014221590618781299 -0.0019115994830025175" generation=7 config_type=aa-gradient probability=1.0 source_path=V-Cr-Ti-W-Zr/Fixed_Engrads/vcrtiwzr_fin_engrads/job_gen_7-2025-02-12/Cr/Cr117_tri-vacancy_idx_3427 temperature=1000.0 min_distance=1.5 n_iterations=1 structure_id=22088 learning_rate=0.01 date_processed=2025-02-12T16:43:40.980844 final_variance=0.009863905608654022 structure_name=struct_id_22088 initial_variance=0.009863905608654022 include_probability=F optimization_method=gradient-based parent_structure_name=struct_id_20196 energy=-1094.47265625 step=1 pbc="T T T"
Cr       1.50317997       1.42394994       1.37704983
Cr       1.38373004       4.29211990       1.49082003
Cr       2.92771002       2.87650021       2.77519005
Cr       2.80220994       5.68155993       2.86815018
Cr       8.50629009       5.64550005       2.88072004
Cr       0.01289020       2.99437998       2.81852003
Cr       4.17081821       4.21881006       6.90203002
Cr       2.96581006       0.06948007       5.77199996
Cr       4.42991001       1.31387001       1.49038999
Cr       4.31585987       4.12912003       1.36676004
Cr       7.39073999       1.31836002       1.07526999
Cr       7.12764043       4.20643001       1.42286001
Cr       5.85945997       2.77506998       2.84250019
Cr       5.54791008       2.88283998       5.67350993
Cr       8.41369035       5.80409988       5.75424007
Cr      -0.00273996       2.98660988       5.60767003
Cr       0.10091012       5.77760004       0.01325996
Cr       4.34103006       1.30467002       4.10912893
Cr       1.45519996       1.42625999       4.14170003
Cr       1.45476994       4.36690001       4.21744004
Cr       2.77861008       2.88045005       5.72549011
Cr       2.78546007       5.65967983       5.67155008
Cr       4.26807001       4.20257002       4.16152022
Cr       8.50047999       0.08221999       5.63513999
Cr       1.30779009       4.34483995       7.08519992
Cr       4.27121040       1.53123007       7.15476008
Cr       5.65984998      -0.00570997       5.60610001
Cr       6.96305018       4.34052004       7.00044003
Cr       5.59980989       5.68756011       5.59141077
Cr       7.03571991       4.31731002       4.25617008
Cr       7.17616001       1.34506999       4.00661004
Cr       1.42839995       1.55558012       7.04944978
Cr       7.00941002       1.49810994       7.03491004
Cr       1.23433015       1.45176016       9.78621005
Cr       1.39774997       4.28423004       9.99111991
Cr       2.86445002       2.93308003       8.52399002
Cr       5.76324006       0.01781002      11.39904003
Cr       4.26860001       4.26061999       9.96887999
Cr       4.25771005       1.50101003      10.01936003
Cr       0.05751008       2.84774012       8.63221969
Cr       7.11806991       1.51509005      10.01784006
Cr       5.68818996       2.92927004       8.55305002
Cr       7.12758996       4.27413012       9.83434986
Cr       5.65518986       5.63900016       8.54010008
Cr       2.88097993       5.68346003      11.33740006
Cr       8.45616997       2.84603997      11.53151015
Cr       8.52057007       5.48495004      11.28414964
Cr       2.69270004       2.84557986      11.38053966
Cr       1.21593000       1.36742998      13.21134003
Cr       1.45335986       4.29787001      12.84598002
Cr       4.13736001       1.48186001      12.77765002
Cr       5.65336996       2.80697997      11.53417997
Cr       7.06598998       1.49005002      12.84286001
Cr       0.04955269      11.26103984      11.33910015
Cr       4.25149358       4.24669002      12.88571984
Cr       7.20879002       4.21394001      12.86856998
Cr       2.98432014       0.16829007       8.48243866
Cr       5.85783006      11.30763006       8.66697785
Cr       2.69747003       2.85721997       0.03324004
Cr       5.69584999       2.81076000       0.04235001
Cr       1.42289997       7.16086001       1.45688002
Cr       1.33865001       9.94654999       1.46044996
Cr       2.70032021       8.43403004       2.88615992
Cr       4.26608999       9.78416007       1.51356992
Cr       8.46490010       8.43860015      14.13391003
Cr       5.72823006       5.60393002       2.71590003
Cr       5.58239002      11.33329000      14.14065001
Cr       4.20634997       7.08757002       1.42340014
Cr       8.52993999       8.52759001       2.78418003
Cr       7.07752003       7.13159537       1.49079987
Cr       7.04779003       9.92181001       1.49531001
Cr       5.70420998       8.56175999       2.87836998
Cr       5.74855009       8.60347998      14.15867004
Cr       5.76464001      11.31005997       2.77357999
Cr       4.33629000       9.82730003       4.35618041
Cr       4.20629990       6.99392006       4.18280020
Cr       1.48121036       7.10810038       4.34551987
Cr       1.53300000      10.02445005       4.36836946
Cr       2.71793002       8.41245003       5.77840008
Cr       2.87386986      11.31587008       2.79088004
Cr       7.16239000       9.92771000       4.29094000
Cr       8.42542002       8.51131996       5.64576002
Cr       7.17181993       6.98456999       4.30318004
Cr       7.04979002      10.05992004       7.22568001
Cr       5.65037999       8.42821999       5.57271000
Cr       4.26061998       9.93126998       7.18685002
Cr       5.67239006       5.64338001      14.16546995
Cr       2.84582013      11.29586002       0.14162004
Cr       1.41735083       7.09738067       9.85607007
Cr       1.55772003       9.97979018       9.93707992
Cr       2.84129004       8.49066004       8.52572009
Cr       4.37911960       9.90679821      10.05768025
Cr       2.74897003       0.00662019      11.37992009
Cr       4.21469984       7.05530003       9.99864060
Cr       2.90352022       5.67880004       8.59731995
Cr       5.74987993       8.53347988      11.36036269
Cr       1.32299992       9.94825003       7.03112004
Cr       8.51399005       8.66435153       8.61223007
Cr       8.47773005       5.73525008       8.52706003
Cr       5.83176981       5.64340002      11.36829989
Cr       7.16070012       7.08050019       9.93091990
Cr       5.68937073       8.50875995       8.64094967
Cr       7.16454007       9.90180005      10.06438005
Cr       0.02213964       0.10800005       8.52263987
Cr       7.13928963       7.04446041      12.81901002
Cr       4.26557983       6.99947004      12.79739011
Cr       1.47969007       7.12522974      12.70207027
Cr       1.68586994      10.02961991      12.74254003
Cr       2.90663007       8.52237008      11.44790008
Cr       4.26054995       9.97425016      12.80319014
Cr       7.17100027      10.03249003      12.78604005
Cr       0.14412011       8.38755008      11.32338009
Cr       2.80185358       8.62058077      14.15063004
Cr       2.79666021       5.76159007       0.06144992
Cr       4.19307990       7.09604988       7.04002007
Cr       7.07624011       7.23659996       7.18308002
Cr       1.28899965       7.24524006       7.21187018
117
Lattice="8.535340639 0.0 0.0 0.0 11.380454186 0.0 0.0 0.0 14.225567732" Properties=species:S:1:pos:R:3 loss=0.01923336647450924 final=T variance=0.01923336647450924 parent_id=20196 REF_energy=-1094.8750554 REF_stress="-0.0015125236310026676 -0.00030062228704816715 -0.001466842025710328 -0.00030062228704816715 -0.00461909748521029 0.0014221590618781299 -0.001466842025710328 0.0014221590618781299 -0.0019115994830025175" generation=7 config_type=aa-gradient probability=1.0 source_path=V-Cr-Ti-W-Zr/Fixed_Engrads/vcrtiwzr_fin_engrads/job_gen_7-2025-02-12/Cr/Cr117_tri-vacancy_idx_3427 temperature=1000.0 min_distance=1.5 n_iterations=1 structure_id=22088 learning_rate=0.01 date_processed=2025-02-12T16:43:40.980844 final_variance=0.009863905608654022 structure_name=struct_id_22088 initial_variance=0.009863905608654022 include_probability=F optimization_method=gradient-based parent_structure_name=struct_id_20196 energy=-1094.1407470703125 step=2 pbc="T T T"
Cr       1.51311739       1.43343884       1.37063748
Cr       1.38129788       4.29205050       1.48080726
Cr       2.92215007       2.86832114       2.77638319
Cr       2.81164402       5.69117211       2.85831098
Cr       8.49628431       5.64217865       2.88238776
Cr       0.00371972       2.99853277       2.81825155
Cr       4.17849381       4.20967931       6.89336207
Cr       2.96697989       0.05986302       5.77568011
Cr       4.42467829       1.31041521       1.49297477
Cr       4.30945134       4.12296400       1.36323977
Cr       7.40040983       1.31003825       1.08528356
Cr       7.13498833       4.21002116       1.42293312
Cr       5.86936236       2.77157139       2.84955668
Cr       5.55018284       2.88960260       5.67964797
Cr       8.40578668       5.81348108       5.75285524
Cr      -0.01256055       2.99636533       5.59860384
Cr       0.09867813       5.77033790       0.02326396
Cr       4.34738562       1.29490979       4.10173552
Cr       1.46504859       1.43540200       4.14373071
Cr       1.46414072       4.35755708       4.21050943
Cr       2.78037256       2.87045405       5.72056434
Cr       2.78981191       5.66788344       5.66443287
Cr       4.25846953       4.20638759       4.16877883
Cr       8.50860582       0.08510904       5.64348213
Cr       1.31237803       4.34065875       7.08179946
Cr       4.26355111       1.53656793       7.14475365
Cr       5.66623524      -0.01572292       5.59639180
Cr       6.97025877       4.33094548       6.99194195
Cr       5.60839673       5.69143552       5.58265984
Cr       7.04407532       4.31764641       4.25897095
Cr       7.16686769       1.34434244       3.99666665
Cr       1.43803568       1.54581490       7.05742592
Cr       7.00806204       1.49441179       7.03353492
Cr       1.24112373       1.45884386       9.77639944
Cr       1.40557425       4.27476507      10.00101039
Cr       2.87048470       2.93899314       8.53009226
Cr       5.75334252       0.01002101      11.39841087
Cr       4.26075131       4.25337742       9.97670163
Cr       4.24923145       1.50821428      10.00953418
Cr       0.05928873       2.83881376       8.64047394
Cr       7.12674476       1.52025973      10.01633145
Cr       5.69710140       2.91963809       8.54320986
Cr       7.13526538       4.26618316       9.84280431
Cr       5.66274785       5.64637539       8.53249655
Cr       2.88941186       5.68888388      11.32764766
Cr       8.46612905       2.85600565      11.52166644
Cr       8.51743564       5.47508613      11.29059814
Cr       2.69961250       2.85314232      11.37316088
Cr       1.22337132       1.37735743      13.20136083
Cr       1.45077302       4.28793107      12.83672134
Cr       4.13616305       1.48670716      12.76770581
Cr       5.65481516       2.81576893      11.54345131
Cr       7.07577718       1.48128715      12.83286259
Cr       0.05675018      11.27018855      11.32929714
Cr       4.25888251       4.23692017      12.87840159
Cr       7.21037773       4.21181856      12.86730839
Cr       2.97573885       0.15837652       8.49234569
Cr       5.84803835      11.30065283       8.67515850
Cr       2.70147765       2.86704992       0.03160003
Cr       5.69023209       2.81520752       0.03352579
Cr       1.42619847       7.15085307       1.44697089
Cr       1.32873093       9.95586586       1.45493326
Cr       2.70730917       8.42412573       2.89489268
Cr       4.27440349       9.77515019       1.50806114
Cr       8.45572610       8.43039790      14.12400253
Cr       5.72092154       5.60039037       2.71093025
Cr       5.57263756      11.32817497      14.13099135
Cr       4.21612991       7.07775960       1.41413477
Cr       8.53723076       8.51764834       2.78980351
Cr       7.07407210       7.12412296       1.48634172
Cr       7.05364553       9.91213452       1.48534810
Cr       5.70722066       8.56332006       2.88764114
Cr       5.73879161       8.60481407      14.14872881
Cr       5.75515931      11.31810464       2.78188382
Cr       4.34423725       9.81846767       4.36294556
Cr       4.20394872       6.98433680       4.17337584
Cr       1.48702177       7.09944642       4.34432959
Cr       1.54023332      10.02660674       4.37607669
Cr       2.71142103       8.40262537       5.78151146
Cr       2.88197599      11.31001971       2.78988797
Cr       7.15465508       9.92574354       4.29889966
Cr       8.41903042       8.50728369       5.64179950
Cr       7.18157841       6.98641943       4.29316650
Cr       7.04467978      10.06125756       7.21690096
Cr       5.65728703       8.43400514       5.56492697
Cr       4.26451931       9.94128330       7.17690190
Cr       5.67528639       5.63984363      14.17503185
Cr       2.85171484      11.29294938       0.13243452
Cr       1.42414585       7.10473801       9.85558533
Cr       1.54861019       9.97176977       9.93925919
Cr       2.83388198       8.48065991       8.52549149
Cr       4.37370249       9.89938945      10.05659902
Cr       2.74057558      -0.00162933      11.38427193
Cr       4.20776973       7.06254316      10.00599653
Cr       2.89594108       5.68534079       8.59034332
Cr       5.75970560       8.52891307      11.36755335
Cr       1.33300336       9.94965001       7.03182588
Cr       8.50541052       8.67168565       8.60506987
Cr       8.47766824       5.74079899       8.51709170
Cr       5.83938973       5.65000412      11.37601915
Cr       7.16778618       7.08768825       9.93976798
Cr       5.69678311       8.50496465       8.64946152
Cr       7.16841345       9.89257844      10.05451277
Cr       0.03103073       0.09807454       8.53221606
Cr       7.14819409       7.05090298      12.81145919
Cr       4.26027485       7.00140031      12.78832133
Cr       1.48433082       7.11980316      12.70033438
Cr       1.69369736      10.03849801      12.74290665
Cr       2.90677653       8.52356037      11.44621616
Cr       4.26991343       9.96451749      12.79388203
Cr       7.16253677      10.03305398      12.78617546
Cr       0.13410887       8.37755120      11.32123928
Cr       2.80915475       8.62711700      14.14089262
Cr       2.80264975       5.76456890       0.07101687
Cr       4.20090322       7.10394951       7.03183304
Cr       7.08286216       7.24649716       7.17489088
Cr       1.28657123       7.23597396       7.21790735
117