117
Lattice="8.535340639 0.0 0.0 0.0 11.380454186 0.0 0.0 0.0 14.225567732" Properties=species:S:1:pos:R:3 loss=0.05766085535287857 final=T variance=0.05766137316823006 parent_id=20196 REF_energy=-1094.8750554 REF_stress="-0.0015125236310026676 -0.00030062228704816715 -0.001466842025710328 -0.00030062228704816715 -0.00461909748521029 0.0014221590618781299 -0.001466842025710328 0.0014221590618781299 -0.0019115994830025175" generation=7 config_type=aa-gradient probability=1.0 source_path=V-Cr-Ti-W-Zr/Fixed_Engrads/vcrtiwzr_fin_engrads/job_gen_7-2025-02-12/Cr/Cr117_tri-vacancy_idx_3427 temperature=1000.0 min_distance=1.5 n_iterations=1 structure_id=22088 learning_rate=0.01 date_processed=2025-02-12T16:43:40.980844 final_variance=0.05766085535287857 structure_name=struct_id_22088 initial_variance=0.009863905608654022 include_probability=F optimization_method=gradient-based parent_structure_name=struct_id_22088 energy=-1092.5203450520833 pbc="T T T"
Cr       1.52213192       1.43675003       1.36494773
Cr       1.37769164       4.26899395       1.46650674
Cr       2.95129619       2.88734791       2.80935167
Cr       2.84240479       5.66013498       2.87100726
Cr       8.47372524       5.61213178       2.90268369
Cr      -0.00019725       3.02303390       2.83215240
Cr       4.15991542       4.18400526       6.91053647
Cr       2.95587124       0.04749538       5.78774974
Cr       4.42913764       1.30493581       1.49577380
Cr       4.27318539       4.10794864       1.38905758
Cr       7.39435645       1.33943887       1.14460457
Cr       7.16444362       4.20627216       1.43977421
Cr       5.90719819       2.77475575       2.84768426
Cr       5.56726871       2.88611036       5.69296776
Cr       8.41215503       5.83583701       5.75392813
Cr      -0.02979177       3.02053514       5.56061480
Cr       0.10970280       5.74481091       0.02542456
Cr       4.34264165       1.30548052       4.10297983
Cr       1.46915316       1.45004782       4.18798090
Cr       1.49533616       4.33493105       4.19832153
Cr       2.74134156       2.86648332       5.72402858
Cr       2.76904448       5.67039649       5.69015351
Cr       4.22765638       4.18349344       4.14538616
Cr       8.55035880       0.07238261       5.66447936
Cr       1.35292559       4.34182763       7.10452609
Cr       4.23977933       1.53529349       7.16541966
Cr       5.66849744      -0.03322507       5.60102442
Cr       6.98507241       4.30481095       6.98736476
Cr       5.63941072       5.70920687       5.61499246
Cr       7.07483858       4.28909435       4.23791711
Cr       7.15666553       1.35320670       3.98659103
Cr       1.44136551       1.50651815       7.03778543
Cr       7.00163583       1.48545005       7.02517665
Cr       1.25355898       1.45360234       9.73961955
Cr       1.42246745       4.27332590       9.98240146
Cr       2.88508765       2.96073916       8.54153843
Cr       5.70177618      -0.01600343      11.39319136
Cr       4.24003287       4.23302179       9.99304018
Cr       4.22810714       1.52735992       9.97606034
Cr       0.07245441       2.84090871       8.67933230
Cr       7.16257225       1.52040533      10.02075761
Cr       5.71791422       2.93612107       8.53206754
Cr       7.15858942       4.24110340       9.82324601
Cr       5.68366531       5.66140638       8.51698977
Cr       2.91735890       5.70079046      11.30436060
Cr       8.48784848       2.86571165      11.53175656
Cr       8.50159985       5.43142560      11.26580311
Cr       2.72675495       2.86475285      11.35653787
Cr       1.21303086       1.40137865      13.16367800
Cr       1.43498453       4.27819937      12.84208091
Cr       4.13920235       1.50424097      12.74715964
Cr       5.60876757       2.83899332      11.56289440
Cr       7.11849114       1.46656218      12.78360551
Cr       0.09460949      11.24401448      11.29303693
Cr       4.27239647       4.22064870      12.84405860
Cr       7.22758031       4.19025428      12.87844027
Cr       2.96687463       0.14573736       8.48089705
Cr       5.84523277      11.28669177       8.68443106
Cr       2.72211944       2.88141526       0.00664507
Cr       5.67346944       2.81619225       0.02100847
Cr       1.39831275       7.12664138       1.40724584
Cr       1.32598561       9.98460448       1.42767904
Cr       2.72986622       8.41726200       2.93183457
Cr       4.29395682       9.75983407       1.50235693
Cr       8.41959363       8.40745533      14.09456951
Cr       5.71292767       5.61760212       2.70506442
Cr       5.51976117      11.30661986      14.13327417
Cr       4.25708872       7.06669202       1.37544342
Cr       8.53807320       8.50875619       2.82000615
Cr       7.03922574       7.08749703       1.45787636
Cr       7.05090180       9.89509360       1.48174182
Cr       5.69546072       8.56475845       2.88823602
Cr       5.73016209       8.60091195      14.13564400
Cr       5.75638601      11.31841250       2.77393798
Cr       4.35620114       9.79864387       4.38249038
Cr       4.18076274       7.00603159       4.13807550
Cr       1.46424690       7.11203917       4.32025392
Cr       1.56182186      10.03592068       4.41378652
Cr       2.68763775       8.39901078       5.76718500
Cr       2.88452738      11.30307137       2.79253038
Cr       7.12792036       9.92150223       4.32262488
Cr       8.41474369       8.49348728       5.62424725
Cr       7.20731150       6.99313424       4.25520289
Cr       7.03409053      10.06133432       7.17802598
Cr       5.67614848       8.43699251       5.54521668
Cr       4.26356591       9.95429715       7.17152144
Cr       5.66178237       5.62891149      14.21158462
Cr       2.84719871      11.26748530       0.11562096
Cr       1.38788142       7.13667021       9.84582207
Cr       1.50080223       9.97551705       9.95282872
Cr       2.81653108       8.46740841       8.53434048
Cr       4.35379824       9.87372440      10.05472275
Cr       2.71838826       0.00025213      11.40783876
Cr       4.20807962       7.08196701      10.02001452
Cr       2.86952797       5.69238942       8.57450325
Cr       5.76255096       8.49961009      11.40798513
Cr       1.33596900       9.96496573       7.01110204
Cr       8.47466800       8.66435456       8.62204406
Cr       8.48351826       5.73076974       8.48660892
Cr       5.83265819       5.64657987      11.37467227
Cr       7.19127565       7.11530120       9.96981271
Cr       5.72262836       8.49703030       8.67768906
Cr       7.19379111       9.85941501      10.05130100
Cr       0.03462794       0.06338672       8.55944470
Cr       7.15077348       7.08325789      12.78170969
Cr       4.25828971       7.02317444      12.78142121
Cr       1.46970696       7.12381666      12.73043861
Cr       1.71812794      10.08441483      12.76473082
Cr       2.86689577       8.49658099      11.42704760
Cr       4.31536484       9.95223817      12.79232379
Cr       7.15882499      10.01301704      12.77890902
Cr       0.10399728       8.34594431      11.35062591
Cr       2.77861061       8.65683300      14.15935752
Cr       2.80925496       5.76586448       0.09136959
Cr       4.20910187       7.10487242       7.03253884
Cr       7.11662611       7.24235408       7.18991211
Cr       1.29355138       7.22238884       7.23729413
