4095
Lattice="-24.06051649224744 24.060131467432615 24.060311028502635 24.06082202461806 -24.06003271914896 24.06051781242144 24.06056203552225 24.06007826236434 -24.06021228005964" Properties=species:S:1:pos:R:3:forces:R:3 energy=-37462.87109375 free_energy=-37462.87109375 stress="0.0036152787506580353 -2.197097819589544e-05 -5.106830576551147e-05 -2.197097819589544e-05 0.0037667693104594946 -5.0805442697310355e-06 -5.106830576551147e-05 -5.0805442697310355e-06 0.0037008028011769056" pbc="T T T"
V       -0.04930835       0.03432245       0.00398875       0.00002538       0.00000066       0.00005758
V        1.53281359       1.53300524      -1.51655966       0.00008215      -0.00001898       0.00002271
V        3.00219578       3.03639185      -2.98476496       0.00010562      -0.00005700       0.00000121
V        4.54926069       4.51043367      -4.50035245       0.00019124      -0.00008179      -0.00001857
V        6.05400083       5.97676999      -6.00815868       0.00024378      -0.00012520       0.00000737
V        7.55724429       7.50000943      -7.53204836       0.00013882      -0.00008422      -0.00001080
V        9.07580604       8.99556583      -8.98648323      -0.00000607       0.00001552      -0.00004309
V       10.52894260      10.53742576     -10.49835299      -0.00001842      -0.00000625      -0.00003584
V       12.03852877      12.02925611     -12.02883407      -0.00001516       0.00001822      -0.00003009
V       13.54983381      13.49878530     -13.54339892      -0.00006524       0.00001115      -0.00004753
Ti      15.13807626      15.08543667     -14.96420809      -0.00010949       0.00002483      -0.00009882
V       16.56742592      16.52985605     -16.58039594      -0.00014324      -0.00000916      -0.00012365
V       18.09787290      17.90849321     -17.90235852      -0.00015992      -0.00004092      -0.00005323
Ti      19.52703296      19.48804306     -19.54120686      -0.00011522      -0.00002914      -0.00005534
V       21.07061321      21.08354109     -21.04609440      -0.00009331      -0.00003156      -0.00002906
W       22.54771522      22.57368379     -22.55278853      -0.00006937      -0.00001897      -0.00000583
V        1.55587772      -1.51198666       1.53989711       0.00009482      -0.00001328       0.00002547
V        3.07252333       0.01753506       0.00966338       0.00022454      -0.00007471      -0.00001886
V        4.49798323       1.54035548      -1.54950270       0.00026578      -0.00013965      -0.00006641
V        6.06028626       3.04390078      -2.97845285       0.00047193      -0.00019878      -0.00007029
V        7.53476376       4.52207253      -4.51821644       0.00055839      -0.00024178      -0.00001647
V        9.08535435       6.05277728      -6.02119881       0.00059433      -0.00034380       0.00001051
Cr      10.55906679       7.54536665      -7.51417664       0.00027449      -0.00020336       0.00005725
V       12.02300349       9.01076519      -8.98465860       0.00007789      -0.00009302       0.00005171
V       13.53864459      10.53537824     -10.51798220       0.00005667      -0.00009456       0.00004324
V       15.07496046      12.04861139     -12.06153771       0.00006283      -0.00013254       0.00005187
V       16.61340022      13.48711343     -13.51181510       0.00001018      -0.00005984       0.00001800
V       18.08032905      15.02305079     -15.04383534      -0.00003767      -0.00006804       0.00000302
Cr      19.53758680      16.46431423     -16.54071751      -0.00005519      -0.00003369      -0.00001502
V       21.06766848      17.94393435     -17.96551397      -0.00007300      -0.00002792      -0.00000831
V       22.57790423      19.50377120     -19.51334569      -0.00004615      -0.00000156       0.00000168
V       24.06276264      21.04411620     -21.01730806      -0.00000402      -0.00000465       0.00000860
V        3.06327249      -3.06455693       2.99438251       0.00016272      -0.00003141      -0.00004412
V        4.47949984      -1.50956268       1.57222670       0.00037134      -0.00012961      -0.00010797
Ti       6.02922046       0.00761530      -0.01588374       0.00058506      -0.00023194      -0.00016937
V        7.55717683       1.54577486      -1.52048013       0.00070086      -0.00028735      -0.00018865
V        9.00854949       3.06101117      -3.06304750       0.00079072      -0.00052980      -0.00022699
V       10.52315550       4.53395595      -4.52952129       0.00099354      -0.00073991       0.00002757
V       11.97744954       6.10161781      -6.02058516       0.00073212      -0.00062084       0.00021695
V       13.53124352       7.61091814      -7.49137990       0.00036523      -0.00032100       0.00022134
V       14.99988544       9.07794285      -9.06453967       0.00031926      -0.00060952       0.00033915
V       16.55623464      10.54108385     -10.55805137       0.00011579      -0.00028402       0.00016065
V       18.06057117      12.02043515     -12.05674785       0.00014228      -0.00032363       0.00015193
V       19.55425787      13.49914581     -13.53610515       0.00000967      -0.00016866       0.00007480
V       20.99279577      14.98496143     -15.08700214      -0.00002885      -0.00011335       0.00002533
V       22.59017772      16.47127937     -16.56988814      -0.00002800      -0.00004587       0.00001714
V       24.06966712      18.03753873     -18.03571465      -0.00001702      -0.00001303       0.00000779
V       25.55722607      19.59013210     -19.56209572       0.00002415       0.00001124      -0.00000268
V        4.56431950      -4.48235555       4.49343114       0.00023878      -0.00000946      -0.00009075
V        6.04301945      -3.01788658       3.05032831       0.00050276      -0.00007036      -0.00019170
V        7.54800323      -1.53425936       1.55696901       0.00083589      -0.00018620      -0.00028548
V        8.99256354      -0.01334374       0.03268751       0.00076113      -0.00038555      -0.00035867
Ti      10.55078303       1.53424226      -1.48398639       0.00063403      -0.00044180      -0.00058967
V       12.03964041       3.13326793      -3.03235370       0.00150297      -0.00080472      -0.00051481
V       13.54234189       4.56172407      -4.50484837       0.00119358      -0.00095741       0.00008261
V       14.96759648       6.05746984      -6.00260534       0.00100079      -0.00149537       0.00047137
Ti      16.50713981       7.55188530      -7.52668843       0.00030720      -0.00091481       0.00035612
V       18.04291466       9.06070650      -9.09587345       0.00014874      -0.00076209       0.00040449
V       19.53314352      10.52569439     -10.58209429       0.00014791      -0.00077228       0.00024228
V       21.03544445      11.99200127     -12.05269218       0.00007480      -0.00060263       0.00021221
V       22.51800370      13.51013287     -13.53499494       0.00000155      -0.00023945       0.00005432
V       23.99645158      15.06316118     -15.05576060      -0.00003180      -0.00009327       0.00000742
V       25.52477128      16.52166491     -16.50236780       0.00000072      -0.00003594      -0.00000820
Ti      27.06515033      18.06452669     -18.04340836       0.00004815       0.00000340      -0.00003280
V        6.03722580      -6.03984222       5.98645018       0.00020151       0.00000149      -0.00013429
V        7.51587606      -4.52446189       4.51009471       0.00051182       0.00000988      -0.00039903
V        9.02982194      -3.03641101       3.01592963       0.00097510      -0.00024912      -0.00056448
W       10.55302305      -1.51155742       1.51521557       0.00063099      -0.00013579      -0.00011569
V       12.10777528      -0.00751776       0.03039290       0.00059156       0.00016269       0.00020011
W       13.55673450       1.55453578      -1.51541854       0.00046799       0.00067416       0.00105438
V       15.04212015       3.11445912      -2.96470152       0.00173099      -0.00161707       0.00077198
Ti      16.59263763       4.53064778      -4.54325689       0.00114271      -0.00191261       0.00001215
V       18.13310565       6.03273931      -6.04342884       0.00013825      -0.00126008       0.00057052
V       19.56521461       7.48772005      -7.52007762       0.00049978      -0.00164835       0.00042740
W       21.05030873       9.00539939      -9.05262843       0.00021768      -0.00107918       0.00055123
V       22.55840182      10.50610474     -10.55814768       0.00005931      -0.00097205       0.00024187
V       24.01853443      11.95680734     -11.99082610      -0.00005701      -0.00064820       0.00020950
Ti      25.55353607      13.53181884     -13.50597520      -0.00004099      -0.00018539       0.00001693
V       27.04186400      15.05409546     -15.07905374      -0.00003015      -0.00004807       0.00001290
V       28.58044369      16.52750938     -16.55597567       0.00003080      -0.00002065      -0.00000885
V        7.51558386      -7.51610942       7.50815075       0.00003470       0.00002624      -0.00005357
V        8.98649749      -6.05820696       5.98568280       0.00034578       0.00004998      -0.00039301
V       10.54339979      -4.51240012       4.51910299       0.00084739       0.00003590      -0.00054292
V       12.03881228      -3.03223838       3.02409887       0.00129911      -0.00014409      -0.00071758
V       13.55841936      -1.53569572       1.56138566       0.00077818       0.00096548      -0.00016896
Ti      15.10591313      -0.01955565       0.01721782       0.00034068       0.00084904       0.00129744
Ti      16.66639929       1.61979588      -1.48408373       0.00162551      -0.00259462       0.00034464
V       18.18630270       3.03992727      -3.04219036      -0.00106317      -0.00053642       0.00184738
V       19.61899166       4.53362929      -4.55629283      -0.00017278      -0.00273126      -0.00008383
Cr      21.08352214       5.98736529      -6.02412259      -0.00035725       0.00015040       0.00024521
V       22.55858202       7.45970404      -7.49910635       0.00025590      -0.00089132       0.00036861
V       24.08839300       9.00495930      -9.04141773       0.00011954      -0.00099330       0.00016616
V       25.56243226      10.48890837     -10.53504385      -0.00004996      -0.00074260       0.00012312
V       27.09427181      11.96141363     -12.00438820      -0.00007072      -0.00049086       0.00011447
V       28.53308002      13.49120678     -13.51586927      -0.00003223      -0.00010409       0.00001522
W       30.08165077      15.01217816     -15.05543955      -0.00007578      -0.00002225       0.00003915
V        9.02212532      -9.04048422       9.00762834      -0.00006054       0.00003875       0.00004965
V       10.44562357      -7.50376377       7.52431356      -0.00000754       0.00014707       0.00002238
V       11.99874169      -6.03685070       5.99271247       0.00058882       0.00015950      -0.00045779
V       13.46425887      -4.51758217       4.51531304       0.00131404      -0.00017446      -0.00104600
V       15.02266707      -2.99788852       3.04182161       0.00152628       0.00078934      -0.00084844
V       16.51510536      -1.51916692       1.50441974       0.00162293      -0.00007361      -0.00151640
V       18.09487550      -0.05749646      -0.01995563       0.00231540      -0.00374392      -0.00405386
V       19.54135466       1.53424160      -1.49962420       0.00248003      -0.00029828      -0.00123630
V       21.09351489       2.99355192      -3.06731952       0.00081185      -0.00171444       0.00111409
V       22.55817635       4.53289595      -4.54492931      -0.00028252      -0.00045380      -0.00123432
V       24.08389209       5.98253857      -6.00958223      -0.00063974       0.00077331      -0.00000814
V       25.56146069       7.48779849      -7.52213318      -0.00040567      -0.00156826       0.00048076
V       27.07910912       8.98269108      -9.06788172      -0.00000946      -0.00059891       0.00000211
V       28.60315318      10.53370143     -10.52876805      -0.00008184      -0.00048085       0.00005198
V       30.07640140      11.95911123     -12.10535589      -0.00009414      -0.00026467       0.00005962
V       31.57354731      13.52041464     -13.52212048      -0.00006385      -0.00002876       0.00003397
V       10.50851377     -10.54348668      10.50855359      -0.00003384       0.00002862       0.00005427
V       11.95996248      -9.03499207       8.96477023      -0.00001064       0.00005491       0.00008791
V       13.57146333      -7.53105397       7.50598434       0.00020671       0.00004397      -0.00011797
V       15.01410646      -5.98951241       6.02220978       0.00080107       0.00026377      -0.00095230
V       16.54487238      -4.58854546       4.52820767       0.00154522       0.00140408      -0.00159950
Ti      18.06524447      -2.96214245       3.05328243      -0.00032434       0.00217097      -0.00100976
V       19.65365309      -1.51109323       1.48248957       0.00201708      -0.00121970      -0.00176358
V       21.02500715      -0.01407115      -0.03257294       0.00144175      -0.00041285      -0.00252303
W       22.56674173       1.50177237      -1.51169836       0.00204483      -0.00261368      -0.00040472
V       24.05989949       3.00095389      -3.05025057      -0.00148888       0.00138733       0.00090751
V       25.55848767       4.50025717      -4.51487716       0.00030588       0.00098835      -0.00001181
V       27.06082366       5.98532774      -6.00780540       0.00007249       0.00129312      -0.00005865
V       28.52425016       7.53276927      -7.53599536      -0.00074589      -0.00092737       0.00009382
V       30.04489126       8.97975278      -9.07408113      -0.00009431      -0.00037347       0.00008681
V       31.53532014      10.53949386     -10.52229358      -0.00004762      -0.00007231       0.00001786
V       33.06027944      11.95916516     -12.08574988      -0.00009558      -0.00012755       0.00004610
V       11.95619178     -12.08586865      12.05038417      -0.00001994       0.00001654       0.00002490
Ti      13.48419683     -10.56272020      10.50797978       0.00004761       0.00001731       0.00000960
V       15.02466990      -9.00704883       9.02067954       0.00013754       0.00012104      -0.00015178
V       16.48442009      -7.54037601       7.50197939       0.00012040       0.00025408      -0.00082935
V       18.03324125      -5.98470007       6.00169308       0.00059693       0.00055558      -0.00194315
V       19.61850848      -4.48419866       4.51763286       0.00087625       0.00100634      -0.00346804
Cr      21.07441902      -2.97258057       2.98624567       0.00067823      -0.00063851      -0.00168788
V       22.53780874      -1.50066923       1.49864252       0.00129408      -0.00063258      -0.00070740
V       24.05519856      -0.02786236      -0.03307532       0.00252235       0.00095093      -0.00122896
V       25.57995848       1.50508918      -1.50705724      -0.00109076       0.00159153       0.00028942
V       27.05425684       3.01368871      -3.00624346       0.00054580       0.00403149       0.00100617
V       28.52927430       4.45585297      -4.46525044       0.00025629       0.00124176      -0.00051215
Ti      30.01834115       6.01101160      -5.98207606       0.00012332      -0.00017923      -0.00038809
V       31.57879978       7.54020480      -7.54897608      -0.00033984      -0.00021929       0.00007707
V       33.06065834       9.01675628      -9.05408954      -0.00020114      -0.00028605       0.00007750
V       34.54831881      10.51513545     -10.53523953      -0.00003468      -0.00004432       0.00001482
V       13.51531944     -13.58718368      13.49223142       0.00001028      -0.00002976       0.00001617
V       14.98718595     -12.03417138      12.10522253       0.00012935       0.00006044      -0.00009495
V       16.44773041     -10.50867415      10.56298576       0.00018995       0.00021622      -0.00027177
V       17.99956385      -9.04681587       9.04349405       0.00024090       0.00050353      -0.00101480
W       19.51974004      -7.51170998       7.50480012       0.00007930       0.00038329      -0.00125454
V       21.07196871      -5.96984065       5.99249082       0.00004735       0.00083248      -0.00171686
V       22.57367177      -4.48420938       4.46964850      -0.00016676       0.00090330      -0.00377527
V       24.04796795      -2.96992059       2.98979347      -0.00026397      -0.00025406       0.00041516
V       25.55192053      -1.45349083       1.46645272      -0.00081785      -0.00044946      -0.00056765
V       27.13337987      -0.05789107      -0.01172883       0.00135285       0.00421473       0.00410655
W       28.59225033       1.53095188      -1.49178998       0.00000949       0.00337568       0.00038940
V       30.09190529       2.98755425      -3.03295282       0.00088978       0.00313334       0.00090577
V       31.60553443       4.44541400      -4.45252588       0.00023133       0.00102296      -0.00047493
V       33.06415443       6.02363821      -5.98739012      -0.00009876      -0.00026046      -0.00006416
V       34.53352787       7.50435498      -7.54667473      -0.00019089      -0.00023081       0.00002427
V       36.04120542       9.04313065      -9.04625423      -0.00020042      -0.00013787       0.00003885
V       15.01504269     -15.02497192      15.04243912      -0.00006533      -0.00007617       0.00003199
V       16.49154992     -13.59413318      13.46924973       0.00003220       0.00002739      -0.00011920
V       17.99413101     -12.01708550      12.00305196       0.00008816       0.00017204      -0.00029311
V       19.54410347     -10.50426714      10.56219827       0.00020654       0.00041494      -0.00075825
V       21.04150174      -9.04191662       9.03336233       0.00011468       0.00048771      -0.00146900
V       22.56903204      -7.47644537       7.54224126       0.00000493       0.00073521      -0.00216988
V       24.07892750      -6.01390817       6.03865861      -0.00083343       0.00082641      -0.00218562
V       25.52945827      -4.53807106       4.51501076      -0.00082064       0.00043531      -0.00055076
V       27.10153857      -2.95074636       2.97105142      -0.00229342      -0.00130576       0.00194517
Cr      28.57432439      -1.48169550       1.49912998      -0.00068494      -0.00029474       0.00412473
V       30.04760816      -0.03440595      -0.01007264      -0.00064731       0.00036394      -0.00104578
V       31.58711703       1.56058034      -1.52925682      -0.00037371       0.00023341      -0.00123539
Cr      33.03335768       2.99163350      -3.01374437       0.00029473       0.00019455      -0.00037974
V       34.50614989       4.48564698      -4.47817330       0.00028544       0.00007673       0.00014843
V       36.03661287       5.99801506      -6.03364563      -0.00015705      -0.00019657       0.00000104
V       37.54920141       7.50128081      -7.56413809      -0.00017406      -0.00019030       0.00003077
V       16.44196114     -16.50338444      16.44437958      -0.00012514      -0.00008419       0.00001469
V       17.96695936     -15.04701088      15.01792219      -0.00003332       0.00000238      -0.00005141
V       19.45996779     -13.49103584      13.47866193       0.00000104       0.00009838      -0.00022060
V       21.04911185     -12.07100158      12.00453355       0.00004597       0.00015204      -0.00050941
V       22.55913858     -10.49698492      10.56644749       0.00000449       0.00024399      -0.00077447
V       24.06913870      -9.02121914       9.00507801       0.00007186       0.00000548      -0.00094488
V       25.60445325      -7.49566614       7.54353780      -0.00045377      -0.00021479      -0.00112081
V       27.09358652      -6.03070303       6.06385723      -0.00124574       0.00018823       0.00127174
V       28.56292901      -4.45869606       4.55011035      -0.00083336       0.00047392       0.00124703
V       29.99805668      -2.90237289       2.90847606      -0.00031573       0.00073263       0.00431713
V       31.58236554      -1.48061099       1.47289886       0.00008370      -0.00119231       0.00041386
V       33.06667021       0.02597831      -0.03310654      -0.00026942      -0.00017707      -0.00052730
V       34.51924901       1.52958705      -1.54898728      -0.00005447       0.00048508       0.00032482
V       36.04858366       3.00557314      -3.02160691       0.00010194       0.00022343       0.00004409
V       37.53931097       4.50099102      -4.51032392       0.00008503      -0.00001375       0.00005011
V       38.98067263       6.02145653      -6.01383355      -0.00019953      -0.00022249      -0.00000349
Zr      18.05780367     -18.09599312      18.04747945      -0.00009054      -0.00008607      -0.00005135
V       19.57433562     -16.48075018      16.54839988      -0.00003466      -0.00003611       0.00000718
Ti      21.11600244     -14.98430352      15.00921665      -0.00000769       0.00001767      -0.00007811
V       22.61323430     -13.46620612      13.48812212       0.00001924       0.00007844      -0.00017264
V       23.99411881     -12.02969501      11.94507216      -0.00007421       0.00006164      -0.00038089
V       25.58936916     -10.48683798      10.55410376      -0.00004564       0.00013632      -0.00050296
Cr      27.11398523      -8.98872947       8.98465229      -0.00012485      -0.00004268      -0.00072160
Cr      28.51846161      -7.49956735       7.50261108      -0.00043431      -0.00029201      -0.00067853
V       30.01758841      -6.07218273       6.08495501      -0.00060070      -0.00030005      -0.00029719
Ti      31.54470307      -4.29726799       4.47907804       0.00057497      -0.00110513       0.00048442
V       33.10270920      -2.90235634       2.96098424       0.00031251      -0.00065553       0.00075266
V       34.56696460      -1.45061852       1.49807558       0.00011438       0.00010253       0.00028484
V       36.06607431      -0.00385275      -0.01212495       0.00013507       0.00031480       0.00019425
V       37.55919450       1.47059678      -1.52803096       0.00012253      -0.00002068       0.00001913
V       39.05826258       2.96660289      -3.04123058      -0.00002607      -0.00015571      -0.00000418
V       40.49930808       4.39358555      -4.49341786      -0.00011648      -0.00013040      -0.00003099
V       19.63267070     -19.66005830      19.63567999      -0.00003262      -0.00006482       0.00000410
V       21.11842375     -18.07693421      18.08072538      -0.00002190      -0.00001521       0.00001867
V       22.63672701     -16.57188936      16.58184707      -0.00000205      -0.00000273      -0.00001040
V       24.05676950     -15.03112716      15.07512497      -0.00000243      -0.00001639      -0.00003035
Ti      25.59469880     -13.47303662      13.52033313      -0.00000047       0.00001038      -0.00009463
V       27.15921245     -11.99692496      11.95175739      -0.00001898       0.00005814      -0.00036389
V       28.55675281     -10.52275636      10.50274325      -0.00011128       0.00010444      -0.00058384
Ti      30.10088931      -8.98775531       8.96993848      -0.00006926       0.00014746      -0.00068584
Cr      31.50572986      -7.51001868       7.50018481      -0.00037026      -0.00017013      -0.00064158
Zr      33.06531309      -6.05907546       5.98964519      -0.00029904      -0.00025338      -0.00031929
V       34.62356824      -4.36759045       4.49700015      -0.00002992       0.00001600       0.00025398
V       36.11252608      -2.99832190       3.01989387       0.00009190       0.00012837       0.00015663
V       37.60158154      -1.50236267       1.50764230       0.00021203      -0.00000104       0.00008183
V       39.09011672      -0.04588538       0.00372033      -0.00001893      -0.00019089      -0.00018410
V       40.60337129       1.44123964      -1.49887084      -0.00010717      -0.00003833       0.00004417
V       42.10056141       2.95974290      -3.00984652      -0.00009774      -0.00014775      -0.00008663
V       21.04996250     -21.07393423      21.04264015      -0.00003005      -0.00003583       0.00000168
V       22.56210083     -19.60520414      19.52780415      -0.00001985      -0.00002475       0.00002450
V       24.10100226     -18.05692055      18.06690634       0.00002343      -0.00001151       0.00001487
V       25.61020022     -16.54023517      16.57482010       0.00001800      -0.00001880       0.00000030
V       27.16073298     -15.05310305      15.04083420       0.00002307       0.00000519      -0.00002948
V       28.57329157     -13.52191865      13.48032165      -0.00003048       0.00000554      -0.00008647
V       30.10058057     -12.01859516      12.03302006      -0.00005030       0.00002039      -0.00019109
V       31.58660552     -10.62006869      10.59635236      -0.00016360       0.00004414      -0.00019461
Ti      33.02562423      -9.02277791       9.02631762      -0.00018358      -0.00003295      -0.00040612
Ti      34.74550199      -7.57301170       7.62194691      -0.00038081       0.00006491      -0.00049684
W       36.16167316      -5.98568067       5.98785817      -0.00026548       0.00006914      -0.00021440
V       37.64530360      -4.50266570       4.49952559      -0.00009523      -0.00003728      -0.00003635
V       39.07192358      -2.98917477       3.00287485      -0.00010327      -0.00012498      -0.00018185
V       40.59512490      -1.49217500       1.50623147      -0.00007513      -0.00009481      -0.00005933
V       42.08851280      -0.01545460       0.02144282      -0.00016248      -0.00010572      -0.00009597
V       43.60610904       1.50761386      -1.47205445      -0.00010489      -0.00007489       0.00001648
V       22.47417623     -22.49958676      22.59230910      -0.00002635       0.00000054       0.00004375
V       24.06876937     -21.06351478      21.03535817       0.00002636      -0.00001526       0.00004155
V       25.62720770     -19.58924065      19.52118646       0.00004466      -0.00001493       0.00002246
V       27.10278649     -18.04621617      18.05333291       0.00006383      -0.00002082       0.00001068
V       28.60154272     -16.56112398      16.55120121       0.00006000      -0.00002955       0.00000805
V       30.08916491     -15.04695930      14.99463014      -0.00000548       0.00000319      -0.00004229
V       31.64130265     -13.56576391      13.50398170      -0.00003123       0.00001824      -0.00009130
V       33.10583836     -12.03279997      12.04913297      -0.00009516       0.00003302      -0.00014054
V       34.61576829     -10.56427816      10.55575247      -0.00010175       0.00006407      -0.00015661
V       36.18407799      -9.05731764       9.10810062      -0.00024883       0.00013312      -0.00021353
V       37.66876947      -7.51575792       7.49513220      -0.00023798      -0.00002468      -0.00029719
V       39.13273638      -6.01744010       6.08474705      -0.00026065      -0.00000158      -0.00019841
Ti      40.65457694      -4.57191818       4.53215036      -0.00015981      -0.00007531      -0.00011843
V       42.11553482      -2.93889486       2.96196769      -0.00019774      -0.00006288      -0.00013095
V       43.57980211      -1.50158495       1.50769292      -0.00011974      -0.00005601      -0.00001863
V       45.07128120      -0.00625444      -0.00388672      -0.00008369      -0.00006076       0.00000646
V       -1.57435520       1.55718780       1.47320071       0.00000256       0.00006460       0.00009117
V        0.02134330       3.01359907      -0.07166783       0.00002192       0.00004022       0.00010274
V        1.55885810       4.48126147      -1.48613501       0.00005180      -0.00002216       0.00005966
V        3.03494626       6.01019412      -3.00249577       0.00006688      -0.00003378       0.00002596
V        4.51225436       7.45815918      -4.50574565       0.00011812      -0.00007719       0.00001985
W        6.05681306       9.00580409      -5.99571056       0.00012236      -0.00010320       0.00002826
V        7.60621923      10.49115775      -7.50631440       0.00003116      -0.00006104      -0.00000668
V        9.04274406      12.01873226      -9.00899502      -0.00001580      -0.00002272      -0.00002540
V       10.51188214      13.51784061     -10.49140753      -0.00002098      -0.00000504      -0.00005845
W       12.03176211      15.07363867     -12.00932472      -0.00003313      -0.00001288      -0.00006806
V       13.54915399      16.60483610     -13.48152155      -0.00011861       0.00000213      -0.00010897
V       15.10890644      18.03062964     -14.98214090      -0.00014201      -0.00003509      -0.00014946
V       16.59724484      19.50974702     -16.47820017      -0.00009987      -0.00003305      -0.00006910
V       18.02055473      21.11430645     -17.95901633      -0.00010473      -0.00005263      -0.00002930
V       19.52899943      22.54679583     -19.55835416      -0.00006188      -0.00002898      -0.00002360
V       21.02058767      24.07811574     -21.01317498      -0.00002790       0.00001513       0.00003031
V       -0.05876018      -0.00050383       3.02736685       0.00000922       0.00007743       0.00009231
W        1.49020226       1.48974436       1.48644823       0.00003436       0.00002879       0.00007761
V        3.03275066       3.02620823      -0.00502599       0.00007512      -0.00005752       0.00000007
V        4.54222061       4.51642849      -1.50239319       0.00014818      -0.00010574      -0.00004492
V        6.06304642       6.02542462      -2.97705566       0.00023435      -0.00014280      -0.00004153
V        7.57726708       7.45899673      -4.53721563       0.00031915      -0.00025469      -0.00000641
V        9.11004848       8.96311071      -6.01990078       0.00027227      -0.00029901      -0.00003502
V       10.57646734      10.50252824      -7.49803712       0.00005157      -0.00015302      -0.00004091