12
Lattice="26.016148573 0.0 0.0 0.0 2.84511109 0.0 0.0 0.0 2.84511109" Properties=species:S:1:pos:R:3:REF_force:R:3 generation=7 structure_index=3506 composition=Cr12 config_type=surface_100 source_path=V-Cr-Ti-W-Zr/Fixed_Engrads/vcrtiwzr_fin_engrads/job_gen_7-2025-02-12/Cr/Cr12_surface_100_idx_3506 date_processed=2025-02-12T16:43:50.336771 REF_stress="0.021933075007956073 0.005121613867953403 0.0066115682019568765 0.005121613867953403 0.0177332758643135 -0.00011717185082020641 0.0066115682019568765 -0.00011717185082020641 0.017150612262884918" REF_energy=-110.28086963 free_energy=-110.28623303 pbc="T T T"
Cr       0.01791000       2.81241000       2.63686000       0.18920200       0.01282400       0.07609900
Cr       1.28794000       1.40301000       1.28360000       0.06879600      -0.11353700       0.17802400
Cr       2.78187000       2.80170000       2.77354000       0.22394600      -0.13281200      -0.17131800
Cr       4.21575000       1.30993000       1.37675000      -0.29395400       0.13191400       0.14202300
Cr       5.65809000       2.70384000       0.01274000       0.13088500       0.26549000      -0.06716300
Cr       7.08766000       1.33141000       1.48424000       0.18962800      -0.03007200      -0.13814200
Cr       8.56476000       2.78846000       0.07015000      -0.22430800      -0.00492200      -0.12332800
Cr       9.98671000       1.40685000       1.46779000      -0.00219900       0.05794600      -0.02462000
Cr      11.44008000       0.03814000       0.01123000       0.19519000       0.00366000       0.31561500
Cr      12.87466000       1.51898000       1.48981000      -0.38683100       0.14325600       0.05330800
Cr      14.35623000       0.18483000       0.13119000      -0.01897700      -0.30194900      -0.30204800
Cr      15.61698000       1.61621000       1.48765000      -0.07137800      -0.03179800       0.06154900
12
Lattice="26.016148573 0.0 0.0 0.0 2.84511109 0.0 0.0 0.0 2.84511109" Properties=species:S:1:pos:R:3:REF_force:R:3 generation=7 structure_index=3507 composition=Cr12 config_type=surface_100 source_path=V-Cr-Ti-W-Zr/Fixed_Engrads/vcrtiwzr_fin_engrads/job_gen_7-2025-02-12/Cr/Cr12_surface_100_idx_3507 date_processed=2025-02-12T16:43:50.422887 REF_energy=-1748976.37883896 free_energy=-1748976.38016583 pbc="T T T"
Cr       0.01460000       2.80229000       2.63890000   -1270.99502700    2237.02055800      71.74647500
Cr       1.29552000       1.40461000       1.28218000    6871.02590600    4730.80538400    3554.67532200
Cr       2.76872000       2.79527000       2.76735000    -130.95048200    -164.81853600    2687.47451700
Cr       4.23058000       1.31014000       1.36717000     601.88219500    2208.22899000     235.37945800
Cr       5.65156000       2.69951000       0.00590000     143.85988600    6183.92008800    2792.53573400
Cr       7.08452000       1.33283000       1.48257000   -2627.44996900   -3329.78625900   -2088.49898600
Cr       8.56474000       2.79239000       0.07583000   -1809.97854300    -943.86469000   -4148.44953900
Cr       9.98851000       1.41376000       1.46678000    -750.18817200   -6686.95391400      67.26514400
Cr      11.44175000       0.03218000       0.02113000    1922.30390700   -6058.60627600   -6612.04393500
Cr      12.87353000       1.52619000       1.49568000    2602.49979100     431.28402900   -1862.00382500
Cr      14.35700000       0.18263000       0.13720000    -362.85836700    -685.72643800   -1649.43975900
Cr      15.61762000       1.62399000       1.48486000   -5189.15112400    2078.49706300    6951.35939400
12
Lattice="26.016148573 0.0 0.0 0.0 2.84511109 0.0 0.0 0.0 2.84511109" Properties=species:S:1:pos:R:3:REF_force:R:3 generation=7 structure_index=3517 composition=Cr12 config_type=surface_100 source_path=V-Cr-Ti-W-Zr/Fixed_Engrads/vcrtiwzr_fin_engrads/job_gen_7-2025-02-12/Cr/Cr12_surface_100_idx_3517 date_processed=2025-02-12T16:43:50.512203 REF_energy=-475462.9788244 free_energy=-475462.98152046 pbc="T T T"
Cr       0.08038000       2.74361000       2.71379000    1580.25057600    -207.28216800    -248.87647600
Cr       1.32304000       1.31084000       1.27776000    1430.35178500    -770.06871800     854.27660100
Cr       2.80256000       2.73850000       2.68507000     247.44385400     501.54735300     865.51694100
Cr       4.18568000       1.32619000       1.32868000    -873.62033200    -502.99645900    1030.01123100
Cr       5.66141000       2.77779000       2.78042000    -852.21940200    1551.61190400     307.24738900
Cr       7.12406000       1.34922000       1.41548000   -2379.70144700   -1081.83459600    -749.08461100
Cr       8.52877000       2.82692000       0.04016000    -248.01172500   -1345.71321100    -932.05369400
Cr       9.99675000       1.44840000       1.51961000     297.76729500     447.09680200   -2404.68003100
Cr      11.43008000       0.07337000       0.15163000    2827.31756300     947.92937200     705.16626200
Cr      12.85438000       1.53957000       1.55495000   -1211.87770400     837.95337100    -705.81916200
Cr      14.31307000       0.14066000       0.07941000   -1307.60136100     -84.81083800     856.87284700
Cr      15.58847000       1.64069000       1.52372000     489.90089700    -293.43281300     421.42270000
12
Lattice="26.016148573 0.0 0.0 0.0 2.84511109 0.0 0.0 0.0 2.84511109" Properties=species:S:1:pos:R:3:REF_force:R:3 generation=7 structure_index=3522 composition=Cr12 config_type=surface_100 source_path=V-Cr-Ti-W-Zr/Fixed_Engrads/vcrtiwzr_fin_engrads/job_gen_7-2025-02-12/Cr/Cr12_surface_100_idx_3522 date_processed=2025-02-12T16:43:50.594143 REF_energy=-4458159.90466086 free_energy=-4458159.89650791 pbc="T T T"
Cr       0.12145000       2.72045000       2.75185000    5465.64261000    1934.96166900    2699.95802300
Cr       1.34244000       1.24352000       1.27392000   -2278.48759400   -1208.80731100    4412.35874700
Cr       2.85407000       2.72599000       2.70243000    -601.49762200   -1436.91758500   -1595.78763800
Cr       4.20293000       1.34251000       1.29654000    2462.49937500     -17.57684900    -467.80010200
Cr       5.67660000       2.82126000       2.76082000   -1517.04702700   -3256.83091300   -4634.29912000
Cr       7.08993000       1.40115000       1.37446000   -8250.86012500    4061.46731500   -4788.71119700
Cr       8.56341000       2.83658000       0.00545000   -4402.42722300    2462.18838100   -1796.85460500
Cr       9.97074000       1.45849000       1.55991000      83.88095100   -6086.89207100    2626.77927600
Cr      11.40410000       0.11448000       0.15941000    5072.47695900   -4539.12377300    2950.79109800
Cr      12.83279000       1.51818000       1.56102000    5245.25511900     242.86148500    -547.13048500
Cr      14.28645000       0.13941000       0.07903000     297.20997800    2619.98311700   -5337.13483100
Cr      15.54374000       1.59374000       1.54581000   -1576.64540100    5224.68653500    6477.83083500
