12
Lattice="26.145326561 0.0 0.0 0.0 2.815134605 0.0 0.0 0.0 4.597094605" Properties=species:S:1:pos:R:3:REF_force:R:3 generation=7 composition=Ti12 config_type=surface_112 source_path=V-Cr-Ti-W-Zr/Fixed_Engrads/vcrtiwzr_fin_engrads/job_gen_7-2025-02-12/Ti/Ti12_surface_112_idx_3639 date_processed=2025-02-12T16:44:58.960590 structure_index=3639 REF_energy=-89.17530829 REF_stress="0.002722764733529683 0.0015130541592783676 0.0002765425448405095 0.0015130541592783676 0.005538502986998523 0.0001741755536668982 0.0002765425448405095 0.0001741755536668982 0.01038691975900289" pbc="T T T"
Ti       0.16427000       2.79914000       4.57648000      -0.09648200      -0.00149200       0.02861300
Ti       5.35229000       0.87340000       4.59107000      -0.27730900       0.07838500      -0.05949300
Ti       2.61694000       1.93093000       4.59703000      -0.04367100      -0.52099600      -0.02926000
Ti       3.95622000       0.01056000       2.25779000       0.13762000       0.05626200       0.08090400
Ti       1.27693000       0.96262000       2.30756000       0.27389700       0.40232200      -0.05803100
Ti       6.62393000       1.78991000       2.26696000      -0.11963000       0.03619800       0.05855100
Ti       7.95089000       2.77491000       4.58031000       0.11509800      -0.05191000      -0.01764400
Ti      13.28196000       1.01305000       0.06018000      -0.07752200      -0.38175200      -0.06951000
Ti      10.63583000       1.86209000       4.59694000      -0.24667200      -0.00064500       0.04878400
Ti      11.95668000       2.78354000       2.35021000       0.23514500       0.35084600      -0.02338000
Ti       9.28899000       0.84935000       2.28008000       0.15517400      -0.05447700       0.01903500
Ti      14.48148000       2.05644000       2.31215000      -0.05564700       0.08726000       0.02142900
124
Lattice="12.432359484 0.002819888 -4.408208854 -6.204788213 10.77658718 -4.382904231 -0.011761452 0.010548783 13.191303842" Properties=species:S:1:pos:R:3:REF_force:R:3 forces="_JSON [[-0.804026, -1.413034, 2.774585], [-0.410858, 0.460796, -0.644925], [-1.780609, -1.251685, 1.417319], [-1.834827, 0.494152, 0.762486], [-1.317911, -2.54939, 2.342573], [-2.084848, -0.381219, -2.089178], [0.006406, 0.94741, -0.255472], [-0.363199, -0.688858, -0.205111], [3.033337, -1.591141, -3.738544], [-2.584051, -2.530858, -1.310794], [0.46387, -1.306408, 0.789387], [0.422995, 0.086063, -2.299245], [1.406893, -2.314286, -0.300372], [0.579614, -0.950245, 0.95758], [0.070358, -0.569087, -2.4978], [1.469484, 0.308528, -1.9479], [-1.364492, 0.070717, -2.107367], [-3.770034, 3.188585, 3.57535], [0.480063, -0.839148, -0.41939], [-0.782668, 2.272019, -2.821939], [2.519167, -0.841567, -1.250255], [1.812438, 0.138906, 0.629706], [-1.371489, -2.640211, -1.903046], [-0.667432, -4.045545, -0.112803], [-2.616863, -0.051623, -1.234591], [-1.96884, -1.048967, 1.823193], [1.5324, 0.940663, 0.440924], [7.11309, 4.353766, -1.643771], [1.182939, 4.000425, 2.443385], [-0.862223, 0.195066, 1.690817], [-2.017143, 0.219162, -4.789317], [1.404719, 5.794956, 2.4247], [-0.099582, 1.129864, 0.560617], [-2.231482, -4.20241, 2.367988], [3.362003, 1.231464, 0.309448], [0.463239, 0.615334, -0.095495], [0.3096, -0.354962, -1.449061], [2.110626, -1.205966, 0.061168], [2.968482, 10.618547, -2.345497], [-1.520397, -2.462642, -1.135222], [2.592644, -0.197004, 1.550093], [5.463489, 0.842727, -0.63621], [0.60501, 1.361165, 2.392012], [1.58215, 2.224751, -1.324657], [2.19407, -1.309187, 0.746225], [2.346073, -2.321631, 0.925], [-0.316163, -0.850035, 1.756567], [0.271361, 2.176334, -2.094666], [-0.350827, 0.514314, 1.124825], [0.185342, 0.337143, -1.32483], [-0.194374, 5.19372, 1.530861], [-0.711336, -0.981437, -1.220059], [-0.939596, 1.418408, 1.003056], [-0.517287, 0.380809, 0.718408], [0.597567, 1.964279, -0.731434], [-1.297274, 0.957554, 0.886813], [-0.677922, -0.129414, -3.934368], [-2.078432, 0.512334, 2.316829], [-0.419155, 0.908696, -1.679036], [1.967771, -0.671939, 0.725659], [0.131215, -3.090894, -1.084243], [1.533631, -0.808173, -1.500369], [-1.578437, -1.488358, -0.434941], [0.653525, 1.134663, -1.600498], [-1.629684, -1.913847, -1.362633], [1.820839, 2.487202, 2.062023], [0.127116, -3.663455, 1.459513], [2.218574, 3.989904, 1.647144], [-0.241349, 1.935641, -2.063507], [0.406361, 2.852298, 2.593803], [-1.369355, 0.629875, 0.631602], [-0.4188, 0.805683, 1.246471], [0.466271, 2.06988, 1.1086], [6.134983, -1.926795, -5.740344], [2.045584, -3.514843, 5.489855], [-0.270382, 0.168745, -0.692184], [0.015875, 0.738956, -1.777874], [-1.010311, 0.644985, 1.298882], [0.120304, 0.738266, 0.778884], [1.120337, -2.16373, -0.162575], [2.675149, 3.341276, -1.273249], [0.115283, 0.641897, 0.161738], [-1.310274, -0.798385, -0.923526], [1.801575, -0.183733, -0.178065], [1.236399, 1.420791, -0.892258], [-1.010635, -2.857862, -0.817214], [-0.884081, -5.045493, 2.667772], [-0.243992, 2.29076, -0.497136], [-0.116395, 1.973672, -0.912032], [1.435307, 1.54997, -0.2524], [-2.262353, 1.152614, -1.323457], [1.497185, -0.901891, 1.117974], [1.138852, -0.717625, 2.764903], [-3.134675, 0.072588, -1.392467], [0.070668, 2.905348, -1.245775], [-3.61381, -3.623283, -5.061166], [-5.533878, -4.946739, 7.967521], [-5.603499, -0.215447, -3.1757], [-0.022978, -0.000483, -0.869669], [1.972571, 0.2362, 1.561045], [3.168505, 0.491977, 1.326126], [-1.762054, 0.461726, 1.012072], [-1.907198, -0.572618, -1.161696], [-7.0101, -0.724674, 1.54204], [-0.196999, -1.090389, 2.243575], [-1.988905, 0.837768, 2.531731], [3.552863, -0.584616, 0.901571], [-0.76347, -0.793133, -0.665149], [0.221916, -1.028307, 0.041173], [0.781531, -0.446345, 0.616669], [-5.349593, -3.038229, -3.827599], [-3.234134, -2.976417, 3.08772], [0.906413, 0.456921, -2.543171], [0.241459, 0.470747, -1.112483], [2.103098, 2.184083, 3.803477], [2.031034, -0.428673, -0.068372], [-2.94631, -1.975752, 2.650377], [-0.987339, -4.472604, -0.16391], [-1.365812, -0.257626, -1.006437], [1.966998, 1.725535, 1.044679], [1.649475, -2.105464, -2.169308], [3.874651, -0.843063, 0.445149], [1.461573, 1.969836, 0.060885], [-5.492178, 0.660387, 0.581217]]" batch_id=6 generation=2 composition=T config_type=T source_path=V-Cr-Ti-W-Zr/Fixed_Engrads/vcrtiwzr_fin_engrads/job_gen_2-2024-11-10_selected_fin/batch_6/structure_19_neb_adversarial_1496 temperature=T date_processed=2025-01-03T17:29:08.608243 structure_type=neb structure_index=19 adversarial_step=T REF_energy=-89.17530829 REF_stress="-0.09010533428450337 -0.00036167048780843126 0.004874300310349405 -0.00036167048780843126 -0.08212598304817308 -0.0019272469463811066 0.004874300310349405 -0.0019272469463811066 -0.08771760127783285" pbc="T T T"
Cr      -0.02033000       0.26551000      12.91665000      -0.80402600      -1.41303400       2.77458500
Cr       5.28794000       0.02932000      -1.71675000      -0.41085800       0.46079600      -0.64492500
Cr      10.20245000       0.21194000       4.25895000      -1.78060900      -1.25168500       1.41731900
Cr      -2.29767000       4.03573000      11.48329000      -1.83482700       0.49415200       0.76248600
Cr      -3.58735000       6.44196000      -0.28846000      -1.31791100      -2.54939000       2.34257300
Cr       1.64755000       1.90987000       6.19818000      -2.08484800      -0.38121900      -2.08917800
Cr      -0.17588000       3.92760000      -0.03672000       0.00640600       0.94741000      -0.25547200
Cr       0.00423000       4.42355000       2.70541000      -0.36319900      -0.68885800      -0.20511100
Cr      -0.23857000       4.49131000       5.80934000       3.03333700      -1.59114100      -3.73854400
Cr       2.75921000       4.55247000       4.53313000      -2.58405100      -2.53085800      -1.31079400
Cr       1.16108000       6.51591000       0.68131000       0.46387000      -1.30640800       0.78938700
Cr       7.34851000       0.05437000       0.30496000       0.42299500       0.08606300      -2.29924500
Cr       6.07370000       2.49285000       1.86420000       1.40689300      -2.31428600      -0.30037200
Cr       5.96255000       2.29837000       6.92779000       0.57961400      -0.95024500       0.95758000
Cr       3.88059000       6.59110000      -2.19741000       0.07035800      -0.56908700      -2.49780000
Cr       2.28468000       8.63918000       1.91498000       1.46948400       0.30852800      -1.94790000
Ti      10.02699000       0.52936000       7.42799000      -1.36449200       0.07071700      -2.10736700
Ti       8.74392000       2.06769000      -2.09565000      -3.77003400       3.18858500       3.57535000
Ti      12.28406000       0.02508000      -1.63834000       0.48006300      -0.83914800      -0.41939000
Ti       6.24788000      10.57649000      -3.35691000      -0.78266800       2.27201900      -2.82193900
Ti      10.97441000       2.33670000      -2.73890000       2.51916700      -0.84156700      -1.25025500
Ti      11.02413000       2.29201000      -0.12624000       1.81243800       0.13890600       0.62970600
Ti      -1.10695000       2.41121000       7.18339000      -1.37148900      -2.64021100      -1.90304600
Ti      -2.50313000       4.59897000       3.46598000      -0.66743200      -4.04554500      -0.11280300
Ti      -3.42311000       6.40088000      -2.63709000      -2.61686300      -0.05162300      -1.23459100
Ti      -3.50637000       6.53969000       5.21050000      -1.96884000      -1.04896700       1.82319300
Ti       8.48328000       6.38072000       3.48109000       1.53240000       0.94066300       0.44092400
Ti       7.09216000       8.26885000       0.12834000       7.11309000       4.35376600      -1.64377100
Ti       7.33314000       8.15077000       2.53746000       1.18293900       4.00042500       2.44338500
Ti      -3.51412000      10.75572000       7.86356000      -0.86222300       0.19506600       1.69081700
Ti      -3.65759000      10.74686000      -2.15265000      -2.01714300       0.21916200      -4.78931700
V       -3.50438000      10.16397000      -0.09786000       1.40471900       5.79495600       2.42470000
V        1.10013000       1.82681000       3.39114000      -0.09958200       1.12986400       0.56061700
V        1.52579000       2.33924000       8.47414000      -2.23148200      -4.20241000       2.36798800
V       -0.01335000       4.10569000       8.14523000       3.36200300       1.23146400       0.30944800
V       -1.16415000       6.36314000      -3.28364000       0.46323900       0.61533400      -0.09549500
V       -1.15110000       6.40607000      -0.70739000       0.30960000      -0.35496200      -1.44906100
V       -1.40313000       6.62719000       1.64954000       2.11062600      -1.20596600       0.06116800
V       -1.33577000       5.93459000       7.44234000       2.96848200      10.61854700      -2.34549700
V       -2.23658000       8.73403000      -4.38227000      -1.52039700      -2.46264200      -1.13522200
V       -2.73290000       8.44126000      -2.03168000       2.59264400      -0.19700400       1.55009300
V       -2.69669000       8.32676000       0.84678000       5.46348900       0.84272700      -0.63621000
V       -2.51433000       8.69009000       3.41757000       0.60501000       1.36116500       2.39201200
V       -1.41988000      10.31187000      -3.22045000       1.58215000       2.22475100      -1.32465700
V        4.57275000       0.10070000       6.13194000       2.19407000      -1.30918700       0.74622500
V        3.57769000       2.38017000      -2.62282000       2.34607300      -2.32163100       0.92500000
V        3.80837000       2.28390000      -0.21908000      -0.31616300      -0.85003500       1.75656700
V        3.53078000       1.87566000       2.91158000       0.27136100       2.17633400      -2.09466600
V        3.82945000       2.06884000       5.13341000      -0.35082700       0.51431400       1.12482500
V        3.82832000       2.02723000       8.11136000       0.18534200       0.33714300      -1.32483000
V        2.49820000       3.88595000       9.47852000      -0.19437400       5.19372000       1.53086100
V        1.43768000       6.53444000      -4.27595000      -0.71133600      -0.98143700      -1.22005900
V        1.33813000       6.24817000      -1.94596000      -0.93959600       1.41840800       1.00305600
V        0.21526000       8.38410000       7.85521000      -0.51728700       0.38080900       0.71840800
V        0.04972000       8.21759000      -2.49385000       0.59756700       1.96427900      -0.73143400
V        0.29867000       8.60416000      -0.12494000      -1.29727400       0.95755400       0.88681300
V       -0.05756000       8.81863000       3.07002000      -0.67792200      -0.12941400      -3.93436800
V        0.19800000       8.61374000       5.17905000      -2.07843200       0.51233400       2.31682900
V        7.44809000       0.07039000       5.48233000      -0.41915500       0.90869600      -1.67903600
V        7.12467000       0.21555000       7.87088000       1.96777100      -0.67193900       0.72565900
V        6.00549000       2.49219000      -3.54538000       0.13121500      -3.09089400      -1.08424300
V        6.12112000       2.36323000       4.54637000       1.53363100      -0.80817300      -1.50036900
V        4.97041000       4.72052000      -4.31467000      -1.57843700      -1.48835800      -0.43494100
V        4.83295000       4.15385000       1.17532000       0.65352500       1.13466300      -1.60049800
V        5.40774000       4.53978000       3.75174000      -1.62968400      -1.91384700      -1.36263300
V        4.69128000       4.10760000       5.96369000       1.82083900       2.48720200       2.06202300
V        3.74018000       6.86650000      -5.43577000       0.12711600      -3.66345500       1.45951300
V        3.80390000       5.91394000       0.18279000       2.21857400       3.98990400       1.64714400
V        3.84238000       6.27201000       2.96399000      -0.24134900       1.93564100      -2.06350700
V        2.42166000       8.21759000       6.58043000       0.40636100       2.85229800       2.59380300
V        2.72789000       8.58282000      -3.61836000      -1.36935500       0.62987500       0.63160200
V        2.61824000       8.50234000      -1.14830000      -0.41880000       0.80568300       1.24647100
V        2.42690000       8.51218000       4.16126000       0.46627100       2.06988000       1.10860000
V        3.16955000      10.76416000       5.49113000       6.13498300      -1.92679500      -5.74034400
V        9.93663000       0.56258000      -1.31990000       2.04558400      -3.51484300       5.48985500
V        9.99158000       0.01275000       1.68849000      -0.27038200       0.16874500      -0.69218400
V        8.41339000       2.18642000       8.79914000       0.01587500       0.73895600      -1.77787400
V        8.95941000       2.26001000       0.72072000      -1.01031100       0.64498500       1.29888200
V        8.79596000       2.26184000       3.31769000       0.12030400       0.73826600       0.77888400
V        8.41152000       2.55471000       6.01965000       1.12033700      -2.16373000      -0.16257500
V        7.20616000       3.96025000      -2.47576000       2.67514900       3.34127600      -1.27324900
V        7.48206000       4.23634000       0.09166000       0.11528300       0.64189700       0.16173800
V        7.79864000       4.39869000       2.83592000      -1.31027400      -0.79838500      -0.92352600
V        6.06731000       6.45653000      -6.04447000       1.80157500      -0.18373300      -0.17806500
V        6.24888000       6.34474000      -3.32880000       1.23639900       1.42079100      -0.89225800
V        6.52520000       6.49009000      -0.96755000      -1.01063500      -2.85786200      -0.81721400
V        6.24776000       6.66925000       1.44132000      -0.88408100      -5.04549300       2.66777200
V        6.29969000       6.26809000       4.69146000      -0.24399200       2.29076000      -0.49713600
V        5.04243000       8.35625000       6.19540000      -0.11639500       1.97367200      -0.91203200
V        4.91607000       8.42688000      -4.22457000       1.43530700       1.54997000      -0.25240000
V        5.41543000       8.54241000      -1.65214000      -2.26235300       1.15261400      -1.32345700
V        4.69627000       8.77001000       3.34242000       1.49718500      -0.90189100       1.11797400
V       -0.04315000       0.23711000       7.43729000       1.13885200      -0.71762500       2.76490300
V       -5.76466000      10.70013000       6.18903000      -3.13467500       0.07258800      -1.39246700
V        9.74819000       4.00760000      -3.32433000       0.07066800       2.90534800      -1.24577500
V       -2.42755000       4.55776000       6.33492000      -3.61381000      -3.62328300      -5.06116600
V       -2.13706000       4.60578000       8.37607000      -5.53387800      -4.94673900       7.96752100
V       -3.13118000       6.65248000       2.96243000      -5.60349900      -0.21544700      -3.17570000
V       -3.64625000      10.78189000       2.97692000      -0.02297800      -0.00048300      -0.86966900
V        1.10092000       2.19131000       0.83677000       1.97257100       0.23620000       1.56104500
V       -0.22696000       4.27416000      10.39091000       3.16850500       0.49197700       1.32612600
V        5.11366000       0.02090000       8.65812000      -1.76205400       0.46172600       1.01207200
V        1.28508000       6.39330000       6.43495000      -1.90719800      -0.57261800      -1.16169600
V        1.63171000      10.58278000      -6.83616000      -7.01010000      -0.72467400       1.54204000
V        6.10134000       2.50553000      -1.07577000      -0.19699900      -1.09038900       2.24357500
W        5.09493000       4.31048000      -1.95450000      -1.98890500       0.83776800       2.53173100
W        3.31567000       6.63022000       5.12162000       3.55286300      -0.58461600       0.90157100
W        7.69349000       4.54040000       5.43399000      -0.76347000      -0.79313300      -0.66514900
W       -1.18233000       2.27777000       9.80885000       0.22191600      -1.02830700       0.04117300
W        7.33373000       8.58504000       5.18129000       0.78153100      -0.44634500       0.61666900
W       -4.89304000       8.61306000      -0.73648000      -5.34959300      -3.03822900      -3.82759900
W       -4.67064000       8.87084000       1.80244000      -3.23413400      -2.97641700       3.08772000
W       -3.61794000      10.71933000       5.50680000       0.90641300       0.45692100      -2.54317100
W        1.22763000       2.19308000      -1.74856000       0.24145900       0.47074700      -1.11248300
W       -1.27107000       6.38693000       4.35069000       2.10309800       2.18408300       3.80347700
W       -2.55417000       8.53606000       6.27364000       2.03103400      -0.42867300      -0.06837200
W        5.17223000       0.08847000       3.43652000      -2.94631000      -1.97575200       2.65037700
W        2.51749000       4.46960000      -0.90257000      -0.98733900      -4.47260400      -0.16391000
W        2.49656000       4.20780000       1.93885000      -1.36581200      -0.25762600      -1.00643700
W        2.35863000       4.23757000       6.97831000       1.96699800       1.72553500       1.04467900
W        1.09702000       6.59226000       3.68840000       1.64947500      -2.10546400      -2.16930800
Zr       7.38872000       0.14703000       2.69425000       3.87465100      -0.84306300       0.44514900
Zr       7.24746000       4.22227000       7.91914000       1.46157300       1.96983600       0.06088500
Zr       5.09019000       8.67304000       0.89063000      -5.49217800       0.66038700       0.58121700
124
Lattice="12.553356086 0.008160566 -4.42934033 -6.281381445 10.930953583 -4.462940494 -0.006348992 -0.051921594 13.270123927" Properties=species:S:1:pos:R:3:REF_force:R:3 forces="_JSON [[0.00023, 0.003647, 0.000139], [0.005429, -0.007349, -0.001593], [0.00138, -0.000333, 0.009073], [0.006155, 0.008292, 0.004015], [-0.000424, -0.003911, 0.005612], [-0.007987, -0.011786, -0.011586], [0.008412, 0.000728, -0.000931], [-0.000896, -0.000575, -0.005683], [-0.001967, -0.012225, -0.001124], [-0.008615, -4.5e-05, 0.002819], [0.000116, -0.001714, -0.003161], [0.000149, -0.004012, -0.007067], [-0.00125, -0.001433, -0.001179], [-0.004682, 0.000139, -0.010531], [-0.002674, 3.3e-05, 0.005521], [-0.00254, -0.003542, -0.002433], [0.004748, 0.004081, -0.00454], [-0.003225, 0.001169, -0.001739], [0.002896, -0.010777, -0.00231], [0.003883, -0.003267, -0.005329], [-0.004584, 0.000978, -0.003838], [0.003513, -0.003386, 0.00671], [0.0054, 0.003366, 0.000884], [0.001954, 0.005066, 0.007729], [-0.006224, 0.004308, 0.000893], [0.004928, -0.001615, -0.001491], [0.000274, 0.00127, 0.003545], [-0.003118, -0.002894, -0.002415], [-0.003927, -0.006615, -0.005039], [-0.000128, -0.005723, -0.014427], [-0.003282, -0.007918, 0.006315], [0.003806, 0.004457, -0.008682], [-0.002881, -0.008867, -1.2e-05], [-0.00452, 0.006024, 0.000906], [0.003706, -0.009315, -0.003262], [-0.000132, 0.004448, 0.001489], [0.006447, -0.004768, 0.0002], [-0.002608, -0.002789, 0.004767], [-0.000598, -0.000871, 0.003093], [0.004227, 0.002919, 0.002139], [0.00047, -0.003803, -0.003065], [-0.005814, -0.002862, -0.003084], [0.002866, 0.000416, 0.004401], [0.009226, 0.003995, -0.001195], [0.001897, -0.003893, -0.002575], [-0.001224, 0.000379, -0.001391], [0.000481, -0.000175, -0.001647], [-0.001504, -0.008474, -0.005296], [0.009807, -0.009636, -0.000255], [-0.001282, -0.00111, 0.004639], [-6.2e-05, 0.002934, -0.013069], [-0.001253, 0.00165, 0.004866], [-0.007857, -0.002113, -0.002278], [0.005176, 0.007852, -0.004391], [0.003029, -0.000123, 0.003233], [0.001021, -0.005752, 0.007106], [0.0059, 0.004911, 0.004669], [-0.00066, 0.004768, -0.004892], [0.007269, 0.002473, 0.004967], [0.001466, 0.007157, -0.005869], [0.005811, -0.008388, -0.000291], [0.002544, 0.012841, -0.00343], [0.001411, 0.001988, -0.001389], [-0.000929, 0.000991, -0.004509], [-0.000481, -0.004086, 0.004251], [0.002309, 0.002658, 0.003037], [-0.008542, -0.004314, -0.00382], [-0.003102, 0.00381, -0.002504], [0.001973, 0.005519, -0.006275], [-0.000848, -0.000652, 0.002035], [-0.008282, 0.005041, -0.000794], [-0.005641, 0.005319, -0.004728], [-0.007141, -0.00952, 4.4e-05], [0.002181, 0.004767, 0.001366], [0.002982, -0.004503, 0.007522], [-0.005523, -0.003577, 0.002003], [-0.000195, 0.000882, 0.000707], [0.000312, -0.005678, -0.002276], [0.004084, 0.010574, 0.008956], [-0.003946, -0.007384, -0.000343], [0.004529, 0.012925, 0.002278], [-0.004995, -0.003865, 0.00089], [-0.000155, 0.008025, 0.000329], [0.007273, 0.000521, 1.1e-05], [-0.00186, 0.005224, 0.000163], [0.001378, 0.004591, 0.003926], [0.000705, 0.003476, -0.000323], [0.004877, 0.000616, 0.007869], [-0.002274, 0.000625, 0.009507], [0.000814, 0.003856, -0.001262], [-0.004017, 0.004644, -0.003133], [-0.007817, -0.005806, 0.00618], [0.000748, -0.004473, -0.008504], [0.002622, -0.003332, 0.001124], [0.002901, 0.010299, 0.005148], [0.001649, 0.002957, 0.006151], [-0.005978, -0.001101, 0.002585], [-0.000677, -0.004482, -0.010831], [9.7e-05, -0.001578, -4e-06], [-0.004058, -0.00104, -0.009172], [0.003951, 0.000579, 0.003384], [-0.000239, 0.002754, -0.003544], [-0.003084, -0.000154, 0.007046], [-4.1e-05, -0.00435, 0.003722], [-0.004113, 0.001675, -0.001406], [-0.001971, 0.001203, 0.00073], [0.005199, -0.004753, 0.005115], [-0.006848, 0.003649, 0.000878], [0.000583, -0.001808, 0.004793], [0.007738, 0.001547, 0.00842], [0.002754, 0.002383, -0.002285], [0.003315, 0.00673, 0.006241], [0.004828, 0.003032, 0.000441], [-0.008629, 0.000914, -0.012594], [-0.001332, 0.005268, -0.00266], [0.000478, -0.009321, 0.000431], [-0.007727, 0.003066, -0.005916], [-0.005206, -0.004106, -0.004427], [0.002263, 0.019847, 0.007221], [0.007559, 0.000156, 0.002122], [-0.006513, 0.00038, -0.00783], [-0.000153, -0.007605, 0.005324], [0.002353, 0.00681, 0.016173], [-0.000252, -5.9e-05, 0.003777]]" batch_id=T generation=0 composition=T config_type=T source_path=V-Cr-Ti-W-Zr/Fixed_Engrads/vcrtiwzr_fin_engrads/job_gen_0-2024-11-01/neb/structure_333 temperature=T date_processed=2025-01-03T17:46:27.140588 structure_type=neb structure_index=333 adversarial_step=T REF_energy=-89.17530829 REF_stress="0.005444312372779819 0.0017262079374364067 0.000976896042346744 0.0017262079374364067 0.008137579734180578 0.0015755066995919553 0.000976896042346744 0.0015755066995919553 0.003658136015661926" pbc="T T T"
Cr       7.41447000       8.69335000      -5.40586000       0.00023000       0.00364700       0.00013900
Cr       2.52808000       0.14807000       4.46194000       0.00542900      -0.00734900      -0.00159300
Cr      -1.23313000       6.54668000       1.75975000       0.00138000      -0.00033300       0.00907300
Cr      -2.64983000       8.63184000       8.87371000       0.00615500       0.00829200       0.00401500
Cr       5.10455000       0.07821000       0.99452000      -0.00042400      -0.00391100       0.00561200
Cr       0.35142000       5.01108000       5.53155000      -0.00798700      -0.01178600      -0.01158600
Cr       4.96351000       4.46717000      -1.79311000       0.00841200       0.00072800      -0.00093100
Cr       3.84600000      10.84381000      -0.00911000      -0.00089600      -0.00057500      -0.00568300
Cr       8.87494000       2.32115000       3.50204000      -0.00196700      -0.01222500      -0.00112400
Cr       6.35692000       6.61431000       4.46169000      -0.00861500      -0.00004500       0.00281900
Ti       5.02327000       8.73083000      -1.82539000       0.00011600      -0.00171400      -0.00316100
Ti      -0.02006000       0.29750000       2.58616000       0.00014900      -0.00401200      -0.00706700
Ti      -1.19463000       2.28559000       9.75439000      -0.00125000      -0.00143300      -0.00117900
Ti       0.03784000       4.28542000       2.66296000      -0.00468200       0.00013900      -0.01053100
Ti      -1.30131000      10.88967000       1.75148000      -0.00267400       0.00003300       0.00552100
Ti       5.10233000       0.00846000       8.98420000      -0.00254000      -0.00354200      -0.00243300
Ti       3.71982000       2.20772000       7.97654000       0.00474800       0.00408100      -0.00454000
Ti       1.24471000       6.45641000      -1.79121000      -0.00322500       0.00116900      -0.00173900
Ti      -0.00931000       8.50743000       5.27786000       0.00289600      -0.01077700      -0.00231000
Ti       1.39616000      10.83173000      -1.86736000       0.00388300      -0.00326700      -0.00532900
Ti       6.38176000       2.22685000       7.18544000      -0.00458400       0.00097800      -0.00383800
Ti       2.25116000       8.30936000       6.89112000       0.00351300      -0.00338600       0.00671000
Ti       3.72793000      10.87336000      -5.47219000       0.00540000       0.00336600       0.00088400
Ti       7.63509000       4.33656000      -2.73975000       0.00195400       0.00506600       0.00772900
V        4.90259000       8.69932000       6.07136000      -0.00622400       0.00430800       0.00089300
V       12.44665000       0.15708000       0.96584000       0.00492800      -0.00161500      -0.00149100
V        0.17602000       0.18162000       7.95434000       0.00027400       0.00127000       0.00354500
V        0.07716000       0.00058000      10.64891000      -0.00311800      -0.00289400      -0.00241500
V       -1.24510000       2.24884000      -0.82179000      -0.00392700      -0.00661500      -0.00503900
V       -1.19424000       2.31614000       4.37738000      -0.00012800      -0.00572300      -0.01442700
V       -1.05443000       2.33674000       6.94157000      -0.00328200      -0.00791800       0.00631500
V       10.02827000       4.34899000      -6.16944000       0.00380600       0.00445700      -0.00868200
V        9.98908000       4.37897000      -0.89803000      -0.00288100      -0.00886700      -0.00001200
V       -2.46278000       4.44663000       6.18489000      -0.00452000       0.00602400       0.00090600
V       -3.72103000       6.49038000      -2.61500000       0.00370600      -0.00931500      -0.00326200
V        8.77927000       6.39025000      -4.46350000      -0.00013200       0.00444800       0.00148900
V        8.72338000       6.58054000      -1.71396000       0.00644700      -0.00476800       0.00020000
V       -3.79520000       6.57011000       5.36219000      -0.00260800      -0.00278900       0.00476700
V       -4.90656000       8.69918000       1.84925000      -0.00059800      -0.00087100       0.00309300
V       -4.99253000       8.75304000       4.44572000       0.00422700       0.00291900       0.00213900
V       -5.04066000       8.78312000       7.03988000       0.00047000      -0.00380300      -0.00306500
V        2.47110000       0.16867000      -0.93662000      -0.00581400      -0.00286200      -0.00308400
V        2.41293000       0.05158000       1.63219000       0.00286600       0.00041600       0.00440100
V       -3.89014000      10.87513000       2.78524000       0.00922600       0.00399500      -0.00119500
V        2.49791000       0.01313000       9.79842000       0.00189700      -0.00389300      -0.00257500
V        1.27034000       2.25392000      -1.76220000      -0.00122400       0.00037900      -0.00139100
V        1.25281000       2.27314000       0.88193000       0.00048100      -0.00017500      -0.00164700
V        1.41839000       2.45962000       3.57127000      -0.00150400      -0.00847400      -0.00529600
V        1.32037000       2.34180000       6.26705000       0.00980700      -0.00963600      -0.00025500
V        1.30589000       2.23405000       8.88173000      -0.00128200      -0.00111000       0.00463900
V        0.01016000       4.35115000      -2.57751000      -0.00006200       0.00293400      -0.01306900
V       -0.02828000       4.35907000      -0.04765000      -0.00125300       0.00165000       0.00486600