124
Lattice="12.591116709 0.034032135 -4.465112751 -6.260695864 10.900870449 -4.449989809 0.0017763 0.021946978 13.400781698" Properties=species:S:1:pos:R:3:REF_force:R:3 generation=4 structure_type=neb structure_index=17 batch_id=10 source_path=V-Cr-Ti-W-Zr/Fixed_Engrads/vcrtiwzr_fin_engrads/job_gen_4-2024-11-13_fin/batch_10/structure_17_neb_adversarial_4696 date_processed=2025-02-12T16:50:02.704213 REF_stress="-0.06325324479482007 -0.0053635160371452596 -0.003391754647678354 -0.0053635160371452596 -0.05504922419599447 -0.001378786814962367 -0.003391754647678354 -0.001378786814962367 -0.05939178537787337" free_energy=-1068.16173762 REF_energy=-1068.16328805 pbc="T T T"
Zr      11.09073000       2.32820000      -5.29102000       1.46911900      -1.86368000       0.90383600
Zr       1.03594000       6.15389000      -2.03071000       0.03204700      -0.81468200      -0.68782700
Zr       5.14731000       4.48387000      -4.34398000      -1.06712700      -3.09310700      -1.60824600
Zr       5.11103000       4.41572000       0.87862000      -1.97513700      -1.15805300       0.44389700
Zr       3.84142000       6.46094000       5.69052000      -0.30946500      -0.21893800      -1.47707300
Zr      10.15019000       0.23929000      -0.95819000      -1.02313000      -1.04092100       0.99586900
Zr       8.94211000       2.14787000       0.89766000      -0.31991600       0.95078700       2.14022000
Zr       8.82370000       2.32671000       6.27442000      -0.08059600      -0.39926000      -0.58809500
Ti      -0.02327000       0.10325000       7.90728000       0.26118600      -0.53639500       1.91588000
Ti      12.48469000       0.11131000       6.36347000      -0.35051700       0.65966200      -0.84236100
Ti      -2.25317000       4.54216000       0.85937000      -2.28356300      -2.98908500       2.55948300
Ti      -2.15223000       4.34054000       6.30667000      -3.15420500      -0.11289600       0.15141800
Ti       8.57421000       6.59988000       1.34359000       3.10225300      -0.01977100      -2.43382000
Ti      -3.66533000      10.68471000       2.92496000      -0.97671900       0.46523900      -2.07849000
Ti       2.39740000       0.06604000       9.89582000       0.17996100      -1.28090100      -0.39427700
Ti       0.98553000       2.46058000      -1.75963000       0.94360900       0.02700200      -0.78708600
Ti       1.41225000       2.14157000       3.63413000      -2.01941500       0.25128000      -0.61638700
Ti       0.14761000       4.52568000       0.43044000       0.76631300      -0.63174300      -0.62153200
Ti       3.70732000       2.16910000      10.38530000       0.81928400       0.63117800       2.84013000
Ti       1.67541000       6.41746000       8.67085000       0.61016700       1.01677900      -0.83066400
Ti       0.06483000       8.67161000       7.94101000      -0.61114100      -0.25524200       1.69711900
Ti       7.23108000       0.42830000      -0.20720000       0.23935500      -1.76077400       1.79833500
Ti       5.38868000       4.51755000       3.19476000      -3.40612200      -1.15587500       4.76799700
Ti       2.67553000       8.61240000      -3.52393000      -0.04602400       0.86124800       0.24924100
Ti       6.31303000       6.28930000      -3.62147000       3.85968200       2.31238800       1.02625300
V        6.32410000      10.69596000      -6.29064000       1.01211000       3.38035600      -0.23292100
V        0.06427000       0.10394000       5.46937000       0.89961600      -1.76282900      -1.09489500
V       11.29384000       2.17325000      -2.40394000       0.72336800       0.62719600      -0.37236600
V       -0.96254000       2.14422000       5.06871000      -1.85275800       0.50695200      -3.15787800
V       -0.87083000       2.53679000       7.34014000      -3.38132000      -1.81621300       1.88515200
V       -1.24738000       2.53302000       9.71097000      -0.09418500       0.16288000       0.39495000
V       -2.28960000       4.60819000      -1.85155000      -1.12483700      -1.03488000      -1.85109800
V       -2.47376000       4.39997000       3.70289000       0.03249100       0.37445300      -0.61423000
V        8.67467000       6.79071000      -7.16344000       1.07549000      -2.82095400       0.20289500
V       -3.56014000       6.41564000      -0.08715000      -4.09925000       1.39522200       1.67702600
V       -3.58944000       6.48899000       2.74606000      -0.80998100      -0.05097500      -0.04883500
V        8.74487000       6.39955000       3.79504000       2.61344800       0.88361400      -1.03001400
V       -4.80424000       8.73879000       9.69153000      -2.12880400       0.37535400       1.49445900
V        7.19525000       8.79973000      -5.51336000       8.15603300      -0.58123300      -1.51064000
V        7.67540000       8.57731000      -2.83889000       0.04574600       0.33322800       1.03480000
V        7.29128000       8.43887000       0.00730000       2.64690800       3.94084900       0.21543200
V        7.28771000       8.49240000       2.82007000       5.06895300       1.99191100      -2.03339900
V       -3.49675000      10.72965000       7.94349000      -1.38753800       0.78630300       1.39007800
V        2.62569000       0.02122000       1.77546000      -0.73736100      -0.24259400       0.24740000
V        1.19613000       2.21219000       0.91316000       0.29265600      -0.48795000       0.22100800
V        0.98921000       2.39489000       6.18650000       5.24535600      -2.62089900       0.74504400
V        1.13710000       2.18817000       8.83197000       1.51750700      -0.01561600       0.77523200
V       -0.02979000       4.69001000       2.91424000      -0.32796200      -0.65281300       0.38078400
V        0.14352000       4.31061000       5.50175000      -0.10461000       1.20009700      -2.22384400
V        0.30886000       4.46517000       8.07102000      -1.67973100       0.39205900       1.12747900
V       -1.35293000       6.79813000      -3.59884000      -0.10804700      -1.06648300      -0.33892000
V       -1.20328000       6.74479000       1.50834000       0.58361800      -1.30639400       5.19545700
V       -1.18287000       6.85849000       4.81558000      -2.13468700      -2.59036400      -3.88978700
V       -1.16961000       6.29747000       6.88624000      -0.82782100       2.13308700       3.68256100
V       -2.67565000       8.65402000       9.03792000       2.26704500       0.90003400      -0.46675900
V       -2.74523000       8.38279000      -1.74278000       0.81682400       3.63251800      -0.06776300
V       -2.32480000       8.53203000       0.95116000      -3.08253100       2.23024400      -0.65517200
V       -2.27388000       8.93451000       6.48082000      -2.19096800      -0.90946300      -0.49118500
V        5.08558000       0.10475000      -1.76329000      -2.08249400      -0.79396800      -0.25869800
V        4.90061000       0.09956000       1.15447000       0.16042400      -0.29312300      -1.27722600
V       -0.76612000      10.50898000      -0.72306000      -2.90664900       1.78793600      -0.97369600
V       -1.34840000      10.78092000       1.73906000       1.26160700       0.50067700       0.59716600
V       -1.11519000      10.92406000       4.34556000      -1.35628500       0.09219700       0.18039000
V        3.82379000       2.38793000      -0.01711000      -1.90908800      -2.24362700      -0.19762300
V        3.98165000       2.04666000       5.21826000      -1.62515600      -0.11831900       2.65077300
V        3.67229000       1.94047000       8.18362000       0.42777100       0.81177100      -2.48284700
V        2.59533000       4.16002000       9.59980000      -0.92156800       0.49239300       0.66291400
V        2.37801000       4.27224000      -0.73656000       1.51216500       0.32654000       0.15454700
V        2.27100000       4.87769000       2.05275000       0.44012400      -4.48619000      -0.86251400
V        2.74121000       4.05217000       4.65675000      -0.53539500       1.77407000      -0.66835400
V        2.35783000       4.21135000       7.01971000       2.53982900       0.31688200       0.60550800
V        1.50768000       6.98905000       1.39165000      -3.23632800      -0.71386000      -4.53434600
V        1.49380000       6.75587000       3.55763000      -2.68797200      -1.69746400       2.29440000
V        0.91716000       6.30760000       6.01718000       3.43498100       1.83394600       0.82413900
V       -0.23383000       8.57155000       0.04976000       2.80989400      -0.06348700      -0.85829500
V       -0.09455000       8.85044000       2.62418000       1.61966700      -0.07745600       0.45379800
V        0.87622000      10.87403000       6.34858000       3.10679000      -0.12513100      -0.95960600
V        7.60764000       0.17192000       2.59756000       0.58571900      -1.47673300       0.49714500
V        7.46259000       0.06042000       5.27883000       0.57320100      -1.19680600       0.49137400
V        1.26168000      10.81625000       3.71767000       0.17226500      -0.26284300      -1.68528300
V        6.75771000       1.97502000       9.43191000      -2.70383900       1.33011000       1.10736100
V        6.10549000       2.03031000       2.13596000       0.77421000       0.07530000      -2.44190700
V        6.03096000       1.96708000       4.35547000       2.89624200       1.10388600       1.51469400
V        6.28020000       2.08355000       6.91832000      -0.64537500       0.42718900       0.44826500
V        5.21940000       4.37771000      -1.46585000      -2.02663700      -0.20239400      -3.46315900
V        5.24719000       4.36057000       6.41396000       0.30083700      -0.60629400      -1.42625500
V        4.34523000       7.16221000      -5.24990000      -2.41769000      -2.04246500      -0.28128900
V        4.13704000       6.34881000      -2.92422000      -3.10364600       1.39295300       2.82840600
V        3.95975000       6.49106000      -0.12928000      -1.46994800       0.45530800      -0.89142900
V        3.56191000       6.53452000       2.21727000       4.86014500       0.50608800       3.39510000
V        2.42720000       8.72476000      -6.15972000       0.34153200       0.16715000      -1.10128900
V        2.46406000       8.03802000      -0.83388000       0.48067000       3.04786000      -0.25629700
V        2.81454000       8.64544000       1.84945000      -1.21832100       1.85247700      -0.82264900
V        3.86729000      10.65100000       5.34981000      -1.10239700       1.16520200      -0.60838500
V        4.08660000      10.75229000      -2.18052000      -1.62181800       1.86095800      -2.44072900
V        3.72805000      10.90475000      -0.00558000       0.16916000      -0.39876400       1.44481100
V        3.79704000      10.34299000       2.74496000      -0.05075600       3.22393700      -0.26514700
V        8.69517000       2.05312000       8.70446000       1.12357500       0.24548200       2.53306500
V        8.50353000       2.57609000      -1.62981000       1.02219000      -2.13216900      -1.67109300
V        8.89680000       2.17942000       3.94072000      -0.52179200       0.28401800      -2.44965600
V        7.77922000       4.59663000      -5.14961000      -0.00144500      -1.70892800      -1.76203100
V        7.61701000       4.16845000      -2.59285000       0.39772800       1.60855200      -1.43096800
V        7.30669000       4.43812000      -0.35383000       3.99142000      -2.18867900       2.20712200
V        7.44429000       4.38694000       2.61036000       3.48579900      -2.00056300       0.09467100
V        7.57206000       4.61984000       5.14510000      -0.30397600      -1.92656500       1.87318400
V        6.43114000       6.61376000       6.99228000      -0.39933200      -0.36792800       0.27187900
V        6.44150000       6.40719000       2.01707000      -2.01903600       1.75792500      -2.78510100
V        6.67621000       6.46135000       4.27526000      -2.93595500       0.72173900       3.09696400
V        4.93103000       8.97232000      -7.01915000       0.17741300      -1.92698300      -1.66044400
V        5.61674000       8.77248000      -4.59827000      -4.90237300       0.96958900       4.60971200
V        4.99502000       8.92115000      -1.82734000       0.97390700      -2.73571500       0.66923100
V        5.22002000       8.82293000       0.98859000      -1.06587200      -1.05941000      -1.48195900
V        5.48257000       8.85800000       3.42758000      -4.83981900      -2.89242900       1.70969700
Cr       9.93117000       4.47026000       4.46293000       1.15846200       0.16054200       0.18512300
Cr       5.81783000       2.09857000      -1.21024000       1.48228200       1.74530800       0.68824900
W        6.29141000      10.73388000       4.48976000       1.90399000       3.59575700       0.71502300
W       -3.62778000      10.89255000       0.06505000      -0.34638400      -1.66558600      -0.45671600
W       -1.46421000       6.41793000      -0.75303000       4.21281700       2.40937700      -4.53690800
W       -2.36954000       8.64155000       3.52557000      -1.65924700      -0.20071200       1.53042700
W        3.75239000       2.24822000       2.80240000       0.08140400      -0.31529800      -1.82125000
W        0.01475000       8.83646000      -2.77528000       0.01764800      -0.72602100       0.88471200
W       -0.12585000       8.83212000       5.40323000       2.72908000       0.09210500      -0.55214500
W        2.53657000       8.58394000       4.40402000       0.69995000       2.41439100       2.15308300
W        6.45236000       6.54359000      -0.66350000      -0.89297700       0.96535900      -3.12150700
