4394
Lattice="39.129999999999995 0.0 0.0 0.0 39.129999999999995 0.0 0.0 0.0 39.129999999999995" Properties=species:S:1:pos:R:3:forces:R:3 energy=-40186.6171875 free_energy=-40186.6171875 stress="0.008800988085567951 -9.346292245027144e-06 -2.4344242774532177e-05 -9.346292245027144e-06 0.00878627598285675 -7.984903641045094e-05 -2.4344242774532177e-05 -7.984903641045094e-05 0.008779851719737053" pbc="T T T"
V        0.00000000       0.00000000       0.00000000      -0.19286293      -0.19259407      -0.14894587
V        1.50500000       1.50500000       1.50500000       0.00964567       0.02198028      -0.28466076
W        0.00000000       0.00000000       3.01000000      -0.22627448      -0.22925729       0.20023334
V        1.50500000       1.50500000       4.51500000      -0.02832196      -0.00963707       0.25231981
V        0.00000000       0.00000000       6.02000000      -0.21192175      -0.17033596       0.04070831
V        1.50500000       1.50500000       7.52500000      -0.13382137       0.12192646      -0.12327219
V        0.00000000       0.00000000       9.03000000      -0.21802540       0.01813043      -0.04984478
V        1.50500000       1.50500000      10.53500000      -0.36493546       0.41156161      -0.14021695
V        0.00000000       0.00000000      12.04000000      -0.01460475       0.00717817       0.02124457
V        1.50500000       1.50500000      13.54500000      -0.08115333       0.13530597       0.15518768
V        0.00000000       0.00000000      15.05000000       0.00319475      -0.21151587       0.01166198
V        1.50500000       1.50500000      16.55500000       0.26506972       0.26550257      -0.27247402
Ti       0.00000000       0.00000000      18.06000000      -0.32985049      -0.04154437      -0.27696729
V        1.50500000       1.50500000      19.56500000       0.15389261       0.41195732       0.10151209
W        0.00000000       0.00000000      21.07000000      -0.01993597      -0.05653308       0.05542494
V        1.50500000       1.50500000      22.57500000      -0.56981963       0.58940780      -0.30496740
V        0.00000000       0.00000000      24.08000000      -0.39703590      -0.02627314       0.25573421
V        1.50500000       1.50500000      25.58500000      -0.55416811       0.33160967       0.55685264
V        0.00000000       0.00000000      27.09000000      -0.01448529      -0.03368972      -0.00358225
V        1.50500000       1.50500000      28.59500000       0.11771816       0.35628644      -0.33574641
Ti       0.00000000       0.00000000      30.10000000      -0.23398660      -0.03242464      -0.01198805
V        1.50500000       1.50500000      31.60500000       0.15563700       0.35990781       0.38122639
V        0.00000000       0.00000000      33.11000000      -0.00066112      -0.01599464      -0.17537287
V        1.50500000       1.50500000      34.61500000       0.16506135       0.16178487      -0.15676734
W        0.00000000       0.00000000      36.12000000      -0.16547403      -0.23589927       0.20152082
V        1.50500000       1.50500000      37.62500000       0.12841408       0.09937528       0.12679829
V        0.00000000       3.01000000       0.00000000      -0.01020405      -0.20995063      -0.01374685
V        1.50500000       4.51500000       1.50500000       0.02394491      -0.02939739       0.02787614
V        0.00000000       3.01000000       3.01000000      -0.23561963       0.17586769       0.02825839
V        1.50500000       4.51500000       4.51500000      -0.13987052       0.14795919       0.15016955
V        0.00000000       3.01000000       6.02000000      -0.02975248       0.02941295       0.01333004
V        1.50500000       4.51500000       7.52500000      -0.01496488      -0.04712211       0.00186264
V        0.00000000       3.01000000       9.03000000      -0.00564340       0.02962417      -0.04155026
V        1.50500000       4.51500000      10.53500000      -0.21513702      -0.20073427      -0.28429925
V        0.00000000       3.01000000      12.04000000       0.37465671       0.01852353      -0.19277292
V        1.50500000       4.51500000      13.54500000      -0.10100205      -0.11262989       0.12057164
W        0.00000000       3.01000000      15.05000000       0.01940645       0.01689829      -0.01195410
V        1.50500000       4.51500000      16.55500000       0.14780879       0.13832940       0.12520665
V        0.00000000       3.01000000      18.06000000       0.00728747       0.01870522       0.17260040
V        1.50500000       4.51500000      19.56500000      -0.08367128       0.14982611      -0.13066834
V        0.00000000       3.01000000      21.07000000       0.02395019       0.02223404      -0.22005038
V        1.50500000       4.51500000      22.57500000      -0.15109496       0.14073882      -0.09671799
V        0.00000000       3.01000000      24.08000000       0.11647958      -0.36585957       0.14986663
W        1.50500000       4.51500000      25.58500000      -0.00203282       0.04746067       0.00585295
V        0.00000000       3.01000000      27.09000000      -0.00436216      -0.25075150       0.01215332
V        1.50500000       4.51500000      28.59500000       0.23277676       0.02009073       0.21432346
V        0.00000000       3.01000000      30.10000000       0.13540824      -0.14809421       0.08781043
V        1.50500000       4.51500000      31.60500000       0.16842267      -0.14655945      -0.09577341
V        0.00000000       3.01000000      33.11000000       0.27731961      -0.21795368       0.00040861
V        1.50500000       4.51500000      34.61500000      -0.15185525      -0.36827052      -0.14798309
V        0.00000000       3.01000000      36.12000000       0.03256804       0.14707252       0.02843731
V        1.50500000       4.51500000      37.62500000      -0.07249461      -0.40009418       0.12173457
W        0.00000000       6.02000000       0.00000000       0.32685423      -0.35029626       0.36378783
V        1.50500000       7.52500000       1.50500000       0.12369905       0.14149125       0.13249561
V        0.00000000       6.02000000       3.01000000      -0.00838261       0.01300540       0.24122551
V        1.50500000       7.52500000       4.51500000      -0.00201015       0.00704320      -0.04069011
V        0.00000000       6.02000000       6.02000000       0.13487157       0.15883261       0.18273368
Cr       1.50500000       7.52500000       7.52500000      -0.01881072      -0.02155367      -0.00697405
V        0.00000000       6.02000000       9.03000000       0.17345351       0.18107891      -0.18223736
V        1.50500000       7.52500000      10.53500000      -0.22489694       0.20566925      -0.20219538
V        0.00000000       6.02000000      12.04000000       0.02677435       0.02057091      -0.03637449
V        1.50500000       7.52500000      13.54500000      -0.22487806       0.23999226       0.25898415
V        0.00000000       6.02000000      15.05000000       0.13379398       0.09603371      -0.11971453
V        1.50500000       7.52500000      16.55500000       0.38995102       0.15557230       0.18444276
V        0.00000000       6.02000000      18.06000000       0.17097941      -0.09802765       0.11256918
V        1.50500000       7.52500000      19.56500000       0.43382344      -0.08268190      -0.40994179
V        0.00000000       6.02000000      21.07000000       0.26451972       0.26074558      -0.23144144
V        1.50500000       7.52500000      22.57500000       0.25809097      -0.20545276       0.22360604
V        0.00000000       6.02000000      24.08000000       0.35309219       0.13770586      -0.12266487
V        1.50500000       7.52500000      25.58500000       0.19254993       0.38637599       0.15173313
V        0.00000000       6.02000000      27.09000000       0.29145741       0.00407904       0.25301200
V        1.50500000       7.52500000      28.59500000       0.46031678      -0.02214482      -0.39356551
V        0.00000000       6.02000000      30.10000000       0.18656325       0.14078994      -0.11703814
V        1.50500000       7.52500000      31.60500000       0.40469477      -0.18227971       0.07848659
W        0.00000000       6.02000000      33.11000000       0.41132838       0.00554535      -0.00880369
V        1.50500000       7.52500000      34.61500000      -0.07568184       0.36742783      -0.15858042
V        0.00000000       6.02000000      36.12000000       0.22080590      -0.14936695      -0.12877131
V        1.50500000       7.52500000      37.62500000       0.13327527       0.39511269       0.13974567
V        0.00000000       9.03000000       0.00000000       0.14975804       0.37368613       0.16561015
V        1.50500000      10.53500000       1.50500000       0.00237502       0.01327111       0.00892984
V        0.00000000       9.03000000       3.01000000       0.01799988       0.01377568       0.04214673
V        1.50500000      10.53500000       4.51500000       0.00864454      -0.02246738      -0.01527093
V        0.00000000       9.03000000       6.02000000       0.15453124      -0.15463689       0.16069210
V        1.50500000      10.53500000       7.52500000       0.57607973      -0.54841733      -0.59295762
V        0.00000000       9.03000000       9.03000000       0.15169312      -0.61370355      -0.19572696
V        1.50500000      10.53500000      10.53500000       0.44765684      -0.75756419       0.41984770
V        0.00000000       9.03000000      12.04000000       0.11418588      -0.15496838      -0.14259596
V        1.50500000      10.53500000      13.54500000       0.14831746      -0.14210965       0.17046626
V        0.00000000       9.03000000      15.05000000       0.26284245      -0.00998058       0.04099449
V        1.50500000      10.53500000      16.55500000       0.19857603      -0.14376496       0.18128240
V        0.00000000       9.03000000      18.06000000       0.11140256       0.13200748       0.12798798
V        1.50500000      10.53500000      19.56500000       0.41884524       0.11500639      -0.41607565
Ti       0.00000000       9.03000000      21.07000000       0.02245859       0.00635670       0.00381156
V        1.50500000      10.53500000      22.57500000       0.28815672       0.25826019       0.25811887
V        0.00000000       9.03000000      24.08000000       0.27875119       0.26101682      -0.22206929
V        1.50500000      10.53500000      25.58500000       0.22521432      -0.17986238       0.17140754
V        0.00000000       9.03000000      27.09000000       0.21975461       0.29318553       0.27432290
V        1.50500000      10.53500000      28.59500000       0.38737306       0.11772793      -0.48551765
Ti       0.00000000       9.03000000      30.10000000       0.21739434       0.24278276       0.14738272
Cr       1.50500000      10.53500000      31.60500000       0.26857147       0.22321898       0.15937366
V        0.00000000       9.03000000      33.11000000       0.32945526       0.28178778      -0.30748448
V        1.50500000      10.53500000      34.61500000       0.01083681       0.02056148       0.03673555
V        0.00000000       9.03000000      36.12000000       0.28099009       0.05403237      -0.01801257
V        1.50500000      10.53500000      37.62500000       0.02563073       0.02783678       0.04166052
V        0.00000000      12.04000000       0.00000000      -0.23921916      -0.26001436       0.28540367
V        1.50500000      13.54500000       1.50500000       0.23939750      -0.28606290       0.27068567
V        0.00000000      12.04000000       3.01000000      -0.00643253      -0.01253607       0.04002322
V        1.50500000      13.54500000       4.51500000       0.01017057       0.01703290      -0.01546970
V        0.00000000      12.04000000       6.02000000       0.01396384      -0.03744680      -0.42055488
V        1.50500000      13.54500000       7.52500000       0.72544843       0.44629622      -0.75131446
Zr       0.00000000      12.04000000       9.03000000       0.01749006      -0.43546924      -0.07008998
V        1.50500000      13.54500000      10.53500000       0.60614580       0.58631980       0.57254988
V        0.00000000      12.04000000      12.04000000       0.19004855      -0.13515504       0.06165227
V        1.50500000      13.54500000      13.54500000      -0.13226502       0.15800630       0.16347864
V        0.00000000      12.04000000      15.05000000       0.36842862      -0.12129287       0.38496661
V        1.50500000      13.54500000      16.55500000       0.00491747       0.00188763       0.03420369
V        0.00000000      12.04000000      18.06000000       0.05171262      -0.02571958      -0.00820246
V        1.50500000      13.54500000      19.56500000      -0.00433484      -0.02692130      -0.04630163
V        0.00000000      12.04000000      21.07000000       0.25830555      -0.25177374      -0.22515112
V        1.50500000      13.54500000      22.57500000      -0.01272348      -0.01983888      -0.04485670
V        0.00000000      12.04000000      24.08000000       0.40346131      -0.08573671       0.41984165
Cr       1.50500000      13.54500000      25.58500000      -0.00480816      -0.06935974       0.01773497
V        0.00000000      12.04000000      27.09000000       0.18757276       0.15435560      -0.13734905
V        1.50500000      13.54500000      28.59500000       0.00368043      -0.04518089       0.05991741
V        0.00000000      12.04000000      30.10000000       0.16938148      -0.16279651       0.14354488
V        1.50500000      13.54500000      31.60500000       0.01032252       0.08043956       0.00222956
V        0.00000000      12.04000000      33.11000000       0.29503328      -0.02334301      -0.31831110
V        1.50500000      13.54500000      34.61500000       0.00682104      -0.00505778      -0.03504696
V        0.00000000      12.04000000      36.12000000      -0.11474271      -0.13980721      -0.13592078
Ti       1.50500000      13.54500000      37.62500000       0.21355549      -0.25011683      -0.23057455
Ti       0.00000000      15.05000000       0.00000000      -0.27707267       0.24448602       0.25943357
V        1.50500000      16.55500000       1.50500000       0.22054055       0.27626175       0.25660330
V        0.00000000      15.05000000       3.01000000      -0.01204536       0.01874805       0.03648476
V        1.50500000      16.55500000       4.51500000      -0.17227173       0.15728319       0.17180327
V        0.00000000      15.05000000       6.02000000       0.00866567      -0.04753021      -0.24076438
V        1.50500000      16.55500000       7.52500000       0.01641846       0.35445365      -0.33653301
W        0.00000000      15.05000000       9.03000000       0.38517684       0.37881631      -0.40683571
V        1.50500000      16.55500000      10.53500000       0.39618951       0.20896019       0.15887447
V        0.00000000      15.05000000      12.04000000       0.27827042       0.32631314       0.30458635
V        1.50500000      16.55500000      13.54500000       0.05809812       0.01341089       0.03053506
V        0.00000000      15.05000000      15.05000000       0.06191784       0.44064009       0.11049952
V        1.50500000      16.55500000      16.55500000       0.01743691       0.04075627       0.00299034
V        0.00000000      15.05000000      18.06000000      -0.00482492       0.02665537      -0.02080608
V        1.50500000      16.55500000      19.56500000      -0.00757846       0.02002974      -0.02769544
V        0.00000000      15.05000000      21.07000000       0.25339615       0.24672548      -0.22389857
V        1.50500000      16.55500000      22.57500000      -0.23516916      -0.01076454      -0.01163015
V        0.00000000      15.05000000      24.08000000       0.38324082       0.09676597       0.42272881
V        1.50500000      16.55500000      25.58500000      -0.25817105       0.04227978       0.04191616
V        0.00000000      15.05000000      27.09000000      -0.05496190      -0.43262076      -0.43171456
Ti       1.50500000      16.55500000      28.59500000      -0.00484005      -0.02439549       0.01207586
V        0.00000000      15.05000000      30.10000000      -0.23704524      -0.27629244       0.22540590
V        1.50500000      16.55500000      31.60500000       0.00497954       0.01627059       0.01978634
V        0.00000000      15.05000000      33.11000000       0.02372577      -0.00928646      -0.01094708
V        1.50500000      16.55500000      34.61500000       0.15215930       0.16967133       0.11157553
V        0.00000000      15.05000000      36.12000000      -0.24516393       0.28663790      -0.26035830
V        1.50500000      16.55500000      37.62500000       0.24237493       0.45098895      -0.43839777
V        0.00000000      18.06000000       0.00000000      -0.25219601      -0.23170984      -0.24010271
Ti       1.50500000      19.56500000       1.50500000      -0.02718595      -0.02293910      -0.00626485
V        0.00000000      18.06000000       3.01000000      -0.25544634      -0.25471526       0.21505454
V        1.50500000      19.56500000       4.51500000      -0.16602364      -0.17888430       0.19506501
Cr       0.00000000      18.06000000       6.02000000       0.00442151       0.00858906       0.00996996
V        1.50500000      19.56500000       7.52500000       0.04693657       0.00729307       0.00770237
V        0.00000000      18.06000000       9.03000000       0.12667994       0.35508710      -0.10339174
V        1.50500000      19.56500000      10.53500000       0.03918064       0.00471711      -0.35979536
V        0.00000000      18.06000000      12.04000000      -0.02438369      -0.01965329       0.30743295
V        1.50500000      19.56500000      13.54500000      -0.12396120      -0.14951918       0.16345820
V        0.00000000      18.06000000      15.05000000      -0.17484219      -0.16075677      -0.12485937
V        1.50500000      19.56500000      16.55500000       0.12481152       0.14347777       0.19291992
V        0.00000000      18.06000000      18.06000000      -0.01914416       0.00016174      -0.02960784
V        1.50500000      19.56500000      19.56500000      -0.01276034       0.01651734      -0.35238600
V        0.00000000      18.06000000      21.07000000      -0.02587431      -0.00902314      -0.00827895
V        1.50500000      19.56500000      22.57500000      -0.17775044      -0.11975919       0.11130443
V        0.00000000      18.06000000      24.08000000      -0.04181944      -0.02813011       0.00544019
V        1.50500000      19.56500000      25.58500000      -0.15284026      -0.10878690      -0.12569985
V        0.00000000      18.06000000      27.09000000      -0.27118039       0.19463383      -0.26800087
V        1.50500000      19.56500000      28.59500000      -0.11712316      -0.13267785       0.13744485
V        0.00000000      18.06000000      30.10000000      -0.03431757       0.23357245       0.27041674
V        1.50500000      19.56500000      31.60500000       0.02843845      -0.00949957       0.04339504
V        0.00000000      18.06000000      33.11000000       0.03899895       0.01884374       0.02712148
V        1.50500000      19.56500000      34.61500000       0.13924015      -0.14784139       0.12922899
V        0.00000000      18.06000000      36.12000000      -0.05796845       0.01898838      -0.04325809
V        1.50500000      19.56500000      37.62500000       0.14088251      -0.17153327      -0.18737440
V        0.00000000      21.07000000       0.00000000      -0.47566366      -0.00912718      -0.01438802
V        1.50500000      22.57500000       1.50500000      -0.19778444      -0.00684512      -0.03353953
V        0.00000000      21.07000000       3.01000000      -0.14807260       0.08510366       0.12894772
V        1.50500000      22.57500000       4.51500000       0.09496446      -0.15501612      -0.08245532
V        0.00000000      21.07000000       6.02000000       0.13544777      -0.12158912       0.16376993
V        1.50500000      22.57500000       7.52500000       0.07641025      -0.32204711       0.31945446
V        0.00000000      21.07000000       9.03000000      -0.06942055      -0.03780998      -0.02831158
V        1.50500000      22.57500000      10.53500000       0.01391846      -0.02753834      -0.33255881
V        0.00000000      21.07000000      12.04000000      -0.07345448      -0.16746175      -0.15111960
V        1.50500000      22.57500000      13.54500000      -0.13781829       0.13558850       0.16399363
V        0.00000000      21.07000000      15.05000000       0.13628593      -0.14441410       0.17548910
V        1.50500000      22.57500000      16.55500000       0.18307811      -0.17943497       0.19612375
V        0.00000000      21.07000000      18.06000000      -0.05510654      -0.01625613      -0.03439797
V        1.50500000      22.57500000      19.56500000       0.14803827      -0.15567826      -0.48032904
V        0.00000000      21.07000000      21.07000000      -0.22412720      -0.23902851      -0.02604904
V        1.50500000      22.57500000      22.57500000      -0.25436881      -0.01022129       0.27510086
V        0.00000000      21.07000000      24.08000000      -0.01142532      -0.01654016       0.01034065
V        1.50500000      22.57500000      25.58500000      -0.14038385       0.07845625      -0.10571723
V        0.00000000      21.07000000      27.09000000      -0.07956709      -0.09711193      -0.14967401
V        1.50500000      22.57500000      28.59500000       0.09380969       0.08609279       0.12956001
V        0.00000000      21.07000000      30.10000000       0.13939722      -0.12585984       0.15083897
V        1.50500000      22.57500000      31.60500000      -0.01304199       0.02635293       0.01626637
V        0.00000000      21.07000000      33.11000000       0.01210232      -0.00823754       0.02657845
V        1.50500000      22.57500000      34.61500000       0.00117271      -0.02303947       0.00408696
V        0.00000000      21.07000000      36.12000000      -0.23767087      -0.24925087      -0.25902593
Ti       1.50500000      22.57500000      37.62500000      -0.02922171      -0.02283928      -0.01597724
V        0.00000000      24.08000000       0.00000000      -0.25951326       0.03132074       0.23241098
V        1.50500000      25.58500000       1.50500000       0.12548621      -0.05850014       0.09657989
V        0.00000000      24.08000000       3.01000000       0.23777591       0.00324652      -0.27904961
V        1.50500000      25.58500000       4.51500000       0.25658497       0.35987854       0.05108781
V        0.00000000      24.08000000       6.02000000       0.08767416       0.00903094       0.28956029
V        1.50500000      25.58500000       7.52500000       0.07844561       0.30896771      -0.00593054
V        0.00000000      24.08000000       9.03000000       0.13564095      -0.13712682      -0.14019768
V        1.50500000      25.58500000      10.53500000       0.23057398      -0.01300564      -0.05510131
V        0.00000000      24.08000000      12.04000000       0.23242530       0.03956109      -0.01671948
V        1.50500000      25.58500000      13.54500000      -0.01743540       0.01360155       0.00883252
V        0.00000000      24.08000000      15.05000000       0.13111889       0.09886472       0.13907681
V        1.50500000      25.58500000      16.55500000       0.00324789      -0.18647045       0.03163679
V        0.00000000      24.08000000      18.06000000       0.00062921      -0.02318964      -0.22891358
V        1.50500000      25.58500000      19.56500000       0.14031403       0.11954396      -0.15502599
W        0.00000000      24.08000000      21.07000000      -0.02524051       0.02485546       0.04236628
V        1.50500000      25.58500000      22.57500000       0.11453213       0.16631703       0.04573379
V        0.00000000      24.08000000      24.08000000       0.17089984       0.19046009       0.39266655
Cr       1.50500000      25.58500000      25.58500000      -0.18818764       0.01075146      -0.03525447
V        0.00000000      24.08000000      27.09000000       0.50424391       0.48658335      -0.15263772
Cr       1.50500000      25.58500000      28.59500000      -0.00990822       0.00494215       0.04003078
V        0.00000000      24.08000000      30.10000000       0.90642291      -0.29394752      -0.62910044
V        1.50500000      25.58500000      31.60500000       0.38849056      -0.02015728       0.08435860
V        0.00000000      24.08000000      33.11000000       0.62558728      -0.56099093       0.55458510
V        1.50500000      25.58500000      34.61500000      -0.02038909      -0.21594475      -0.00979600
V        0.00000000      24.08000000      36.12000000      -0.24662691       0.20016669      -0.25252032
V        1.50500000      25.58500000      37.62500000       0.14404187      -0.15601794      -0.16079758
W        0.00000000      27.09000000       0.00000000      -0.53904396      -0.11622076      -0.12916008
Ti       1.50500000      28.59500000       1.50500000       0.29139397       0.22949466       0.22910360
V        0.00000000      27.09000000       3.01000000      -0.28756618       0.07719935       0.19432412
V        1.50500000      28.59500000       4.51500000       0.00932927      -0.01001295       0.36486357
V        0.00000000      27.09000000       6.02000000       0.08463855       0.10730118       0.11279686
V        1.50500000      28.59500000       7.52500000       0.03985005       0.04430554      -0.33756280
V        0.00000000      27.09000000       9.03000000       0.13790005       0.13771743      -0.13220713
V        1.50500000      28.59500000      10.53500000       0.01719810      -0.02320144      -0.03910993
V        0.00000000      27.09000000      12.04000000       0.16661584       0.15067106       0.14075632
V        1.50500000      28.59500000      13.54500000      -0.37452260       0.15778117      -0.03579368
V        0.00000000      27.09000000      15.05000000      -0.11682239      -0.19368342      -0.13781428
W        1.50500000      28.59500000      16.55500000      -0.23585512       0.16929141      -0.20693919
V        0.00000000      27.09000000      18.06000000       0.10524468      -0.09774670       0.10314339
V        1.50500000      28.59500000      19.56500000      -0.00176589      -0.01671142       0.19180673
V        0.00000000      27.09000000      21.07000000       0.02137387       0.21178758       0.02881784
V        1.50500000      28.59500000      22.57500000       0.00589549      -0.00042189       0.01007444
V        0.00000000      27.09000000      24.08000000       0.42516679      -0.41467977      -0.06158922
V        1.50500000      28.59500000      25.58500000       0.00276379       0.00842006      -0.00903377
V        0.00000000      27.09000000      27.09000000       0.63217878      -0.57143009       0.26007879
V        1.50500000      28.59500000      28.59500000      -0.01032851       0.01979380       0.00664715
V        0.00000000      27.09000000      30.10000000       0.77906603       0.41005665      -0.77314961
V        1.50500000      28.59500000      31.60500000      -0.00396955      -0.02519659      -0.24754077
V        0.00000000      27.09000000      33.11000000       0.44883138       0.43198806       0.43684816
W        1.50500000      28.59500000      34.61500000       0.02166784      -0.02272789       0.01638334
V        0.00000000      27.09000000      36.12000000      -0.12786299      -0.11901708      -0.07417281
V        1.50500000      28.59500000      37.62500000       0.12295561       0.08825991       0.11574378
V        0.00000000      30.10000000       0.00000000      -0.27096048       0.17573431      -0.23996636
V        1.50500000      31.60500000       1.50500000       0.19319934      -0.01908534      -0.00008149
V        0.00000000      30.10000000       3.01000000      -0.30835259      -0.00978678       0.22412594
V        1.50500000      31.60500000       4.51500000      -0.13149200      -0.17025360       0.16425395
Cr       0.00000000      30.10000000       6.02000000       0.03770670      -0.03970127      -0.03184178
V        1.50500000      31.60500000       7.52500000      -0.03011620      -0.34633774      -0.34493300
V        0.00000000      30.10000000       9.03000000       0.45932579      -0.02616270       0.20871833
Cr       1.50500000      31.60500000      10.53500000      -0.20463976      -0.36334458      -0.16647148
V        0.00000000      30.10000000      12.04000000       0.18066940       0.15404347      -0.18096541
V        1.50500000      31.60500000      13.54500000      -0.54512358      -0.52658439       0.32448408
Cr       0.00000000      30.10000000      15.05000000      -0.09144862       0.08961388      -0.11453751
V        1.50500000      31.60500000      16.55500000      -0.32224882      -0.08449099      -0.01055130
V        0.00000000      30.10000000      18.06000000      -0.12972899       0.14481349       0.20112884
V        1.50500000      31.60500000      19.56500000      -0.24381745       0.02063083       0.02789909
V        0.00000000      30.10000000      21.07000000      -0.01278748       0.03833615       0.02301662
V        1.50500000      31.60500000      22.57500000       0.11354399      -0.16802660      -0.14780390
V        0.00000000      30.10000000      24.08000000       0.25557649       0.01064202      -0.26565376
V        1.50500000      31.60500000      25.58500000       0.74169588      -0.71618456      -0.48998865
V        0.00000000      30.10000000      27.09000000       0.25090939      -0.21485132       0.22699302
V        1.50500000      31.60500000      28.59500000       0.56747460      -0.86058605       0.34547651
V        0.00000000      30.10000000      30.10000000       0.01436446      -0.24796836      -0.00633756