8
Lattice="4.72933149834 -0.0667950658686 0.0465220504201 0.0272907562826 4.74740699034 -0.0120339565516 0.0598917942309 0.0305553683737 4.75281168814" Properties=species:S:1:pos:R:3:force:R:3 config_type=A15 virial="3.8262852928 0.204017845841 -0.584912009251 0.204017845841 3.63037188646 -0.0733131101767 -0.584912009251 -0.0733131101767 3.49297121198" energy=-71.49225221 pbc="T T T"
V        0.00000000       0.00000000       0.00000000       0.00000000       0.00000000      -0.00000000
V        2.40825702       2.35558365       2.39364989      -0.00000000       0.00000000      -0.00000000
V        1.19597825       2.35700473       0.00561353       0.01040579       0.00085608       0.00136387
V        3.56064401       2.32360719       0.02887456      -0.01040579      -0.00085608      -0.00136387
V        0.03676859       1.20212944       2.37339735      -0.00060499      -0.01590255       0.00034197
V        0.05041397       3.57583292       2.36738037       0.00060499       0.01590255      -0.00034197
V        2.37963870      -0.02575869       1.21146395      -0.00242329       0.00026790       0.00541976
V        2.40958460      -0.01048100       3.58786979       0.00242329      -0.00026790      -0.00541976
