6
Lattice="0.0897389729518 3.45707222083 3.18038629437 3.80198412228 -0.390908558565 3.52792871689 3.39992991592 3.59219056193 -0.398798064921" Properties=species:S:1:pos:R:3:force:R:3 config_type=C15 virial="-7.50641534894 2.42702072596 -2.0686823295 2.42702072596 -9.75400442324 4.76034637576 -2.0686823295 4.76034637576 -7.77685194895" energy=-52.22097624 pbc="T T T"
V        0.91145663       0.83229428       0.78868962      -0.00000000      -0.00000000      -0.00000000
V        2.81244869       0.63683999       2.55265397      -0.00000000      -0.00000000       0.00000000
V        2.61142158       2.62838956       0.58929058      -0.00000000      -0.00000000       0.00000000
V        0.95632611       2.56083038       2.37888276      -0.00000000      -0.00000000       0.00000000
V        3.64582651       3.32917711       3.15475848       0.15923362      -0.02880206       0.05259089
V        5.46873976       4.99376567       4.73213771      -0.15923362       0.02880206      -0.05259089
