122
Lattice="15.100251138 0.0 0.0 0.0 9.06015068278 0.0 0.0 0.0 12.0802009104" Properties=species:S:1:pos:R:3:force:R:3 config_type=di-sia energy=-1088.31875272 pbc="T T T"
V        1.64799719       1.35037642       4.39999679      -0.36587870       0.14676284       0.26096739
V        0.10023745       2.90208010       2.89108185      -0.12586468       0.03433973       0.00158128
V        1.62112722       1.42222727       1.45059316      -0.17162178      -0.48986580      -0.15185871
V        0.12342785       2.93619444       5.88955895       0.14078846      -0.38299034       0.37673514
V        1.56547738       4.35475248       4.43346196       0.18610748       0.50910618      -0.20399171
V        2.97401563       2.93995775       2.93876290       0.70828261      -0.45906649       0.22706643
V        3.15758011       2.87450451       5.79758384       0.05657618       0.09440748       0.61230082
V        1.60646915       4.45969218       1.40644021      -0.54401163      -0.17960151      -0.14616453
V        6.22555600       2.81459273       5.85091924      -0.36085173       0.22342113      -0.22283418
V        4.62339583       1.32178472       4.32263270       0.02737985       0.41010477       0.20490755
V        4.58018372       4.44127082       4.35224989       0.58339221      -0.41310784       0.35790154
V        5.81914756       3.34227360       0.32135969      -0.11384728       0.34992072       0.13414051
V        4.57004162       1.41296013       1.36608820       0.23210293      -0.18252576       0.81849694
V        6.08548588       2.88348939       2.94305306       0.45117081       0.29384156      -0.04562392
V        4.38515997       4.61490018       1.52600033       0.74370913      -0.14887329       0.26904106
V        1.60344909       1.36779110       7.37743703       0.26131946       0.19149700       0.17343776
V        1.68230910       1.38170591      10.36197108      -0.38663856       0.05685454       0.11397554
V        1.56411318       4.39244196      10.54373859       0.13727101       0.13583651      -0.88998385
V        0.13191974       2.93598746       8.92640291       0.31980143      -0.24163957      -0.15673077
V        0.09760971       2.78861653      11.99195146      -0.04399461       0.71374445      -0.32658813
V        3.16374252       2.85597024       8.73125686       0.06444441       0.29233852       0.57134766
V        2.99959668       3.05081522      12.07860151      -0.26497230      -0.51969992      -0.18017283
V        1.67708752       4.49731580       7.40371429      -0.33373474      -0.86551173      -0.01778362
V        6.21464243       2.85441788       8.81968507      -0.21533768       0.38259120      -0.20219532
V        4.36643754       1.69614864      10.79164615       0.04606738      -0.13662944      -0.72564571
V        5.77667869       0.40301583       9.57337105      -0.49768628      -0.44644425      -0.38881894
V        4.47488651       4.47193231      10.40421415       0.84579426      -0.11976945      -0.04409547
V        7.00340239       2.04898648      11.10729314       0.20467637      -0.14500744       0.22315949
V        4.68801174       4.37319267       7.36469825      -0.10299785       0.12087042       0.03390648
V        4.79927378       1.29404919       7.31727123      -0.30070613       0.17801101      -0.04141129
V        1.74257839       7.42391381       1.36864725      -0.57124921       0.12971358       0.14083290
V        1.61920792       7.34227837       4.48927174      -0.04927341       0.67327227      -0.21320187
V        3.07166392       5.96637736       2.93857473       0.20405911      -0.09021369       0.21004877
V        0.21631933       8.87416828       2.76391045      -0.18632050       0.38292717       0.85834491
V        0.14252285       5.89590012       5.92517861      -0.14441438       0.10345326       0.09956149
V        0.08183330       5.90048194       2.90285158       0.34691665       0.15178821       0.04977573
V        3.08791198       8.91659951       5.98675565       0.55589946      -0.01661753      -0.54239576
V        3.10193029       5.89081966       5.90944800       0.32578007      -0.09082330       0.10070624
V        3.14067348       8.89651288       3.04780458      -0.10598743       0.13893450      -0.97835700
V        0.08062932       8.97554224       5.99821490       0.47736408      -0.29318210      -0.35958845
V        4.65612716       7.46378600       4.41457018      -0.04421467      -0.45298984       0.14297403
V        6.13998791       5.87798679       5.88668943      -0.29879373      -0.13218156      -0.01322526
V        6.24453246       5.98700967       2.97739320      -0.26575646      -0.45900853      -0.40911198
V        4.60779695       7.35555343       1.44749784       0.32157921       1.01157008      -0.15940702
V        6.14021371       8.86438369       2.77457941       0.08684101       0.49760766       0.75684886
V        6.20312672       8.93442815       5.70756564       0.28334670      -0.47145504       0.42007941
V        1.59709852       7.37965738       7.44022772       0.22318832       0.07601629       0.24258350
V        1.63859834       7.43000095      10.43225076       0.18149125       0.19376652      -0.03438093
V        0.15477052       8.88966367      11.87604175       0.38191199       0.68472969       0.59474338
V        0.10471671       5.93053191      11.91781441       0.32316610       0.07623081       0.35646339
V        0.13255668       5.86394026       8.96093121       0.16851355       0.36920163       0.02375374
V        3.22770926       8.94766557       8.92395677      -0.72101319      -0.12608125      -0.00867691
V        0.18238281       8.97550460       8.96989728      -0.06218527      -0.20815084      -0.08097632
V        3.08618086       5.86975457       8.95465590       0.33808416       0.28430536      -0.15309352
V        3.05015665       8.99194083      11.98865858       0.53043149      -0.43887057       0.01169525
V        3.12919541       6.00606139      11.94349895      -0.37731737      -0.18181957       0.00480132
V        6.18885439       8.91377703      12.07051040      -0.22597368      -0.38196772       0.23595474
V        6.89402201       8.19923879       8.13647631      -0.47738432       0.42370668       0.10106515
V        6.19798981       5.86565257       8.93272526      -0.42451744      -0.54657170      -0.26559470
V        4.62141069       7.38943255      10.52680373       0.14362377       0.08193017      -0.40977597
V        4.57241250       7.43722650       7.38940433       0.08852217      -0.14537783       0.23978172
V        6.13802159       5.94577328      11.98113197      -0.08912998      -0.06012612      -0.02735899
V       10.64403061       1.27224085       1.26712276       0.60077273       0.21397182       0.47973564
V        7.69665916       1.35315185       4.35967300       0.01397884      -0.10314918      -0.28563602
V        9.24112790       2.84635500       2.92155519      -0.20333036       0.07187285      -0.62561429
V        9.17957909       2.74705086       5.82534760       0.60718731       0.47678775       0.25825239
V        7.71225804       1.46168550       1.48195087      -0.20627133      -0.38632234       0.07867734
V       10.77170065       4.26320075       4.22467394      -0.13751938       0.00984185       0.24014408
V       10.81469638       1.41263084       4.41326243      -0.48956981      -0.76480001      -0.55770738
V       10.67347845       4.49561290       1.22708122       0.16002877      -0.56169914       0.52305544
V        7.70563463       4.35017067       4.32662180      -0.15720929      -0.02716086       0.15456123
V        7.85574336       4.48568719       1.38800944      -0.55542950      -0.46068566       0.26292232
V       12.26629622       2.82296608       2.77266954      -0.28499339       0.45366599       0.15812236
V       13.67311276       4.50140838       1.35446900       0.57068625      -0.87971677       0.10238262
V       13.75355335       1.36636104       1.33989561      -0.09987881      -0.28539337       0.10084127
V       12.21417447       2.78797677       5.85864342       0.40802588       0.58628757       0.19605796
V       13.78864615       4.43141096       4.40622506      -0.49697074      -0.60335110      -0.25066359
V       13.72608124       1.44362164       4.35813946       0.19050144      -0.65817263       0.02238316
V       10.84809568       1.36532613       7.41859815      -0.67754629      -0.10541594      -0.41258002
V        9.09388869       2.90037721       8.90122642       0.65719973      -0.27156425       0.14251064
V        7.83185580       1.34878642       7.28746588      -0.50959902      -0.19928314       0.06368787
V        7.74075566       4.26563748       7.27433195      -0.36268432      -0.22514473       0.56875242
V        8.34695782       0.69230559       9.93041438      -0.23189620       0.61760264      -0.30347686
V        9.31244248       2.81080120      11.87020863      -0.10284714       0.26637580       0.22787990
V       10.81375555       1.35782776      10.36065393      -0.05040405      -0.23883826       0.30137553
V       10.82645670       4.22136223       7.41521118      -0.48397329       0.27257317      -0.03256060
V       10.70104464       4.35190178      10.47571691       0.18844055       0.05568121      -0.63059327
V        7.63422597       4.33868318      10.50855172      -0.02267244       0.88240902      -0.46483258
V       13.79344435       1.37703942       7.44923143      -0.35579214       0.25190929      -0.13503623
V       12.23092118       2.84290217       9.03594324       0.21762209       0.32331312      -0.81482883
V       13.68063937       4.39834094       7.40216192       0.07258204      -0.07280410       0.09094233
V       13.73125578       1.40629909      10.44589273       0.05992922      -0.16685900      -0.03411302
V       12.30910378       2.94981759      12.02290463      -0.61321517      -0.32152958      -0.65962762
V       13.81386027       4.41666822      10.38803196      -0.59604501      -0.16360521       0.25432363
V        9.50139789       5.68719677       5.70684121      -0.29799372      -0.49263579      -0.19565171
V        9.23121160       5.94850167       2.85754142       0.09238354      -0.12181509      -0.34320362
V        9.19037036       8.90636333       2.90163791       0.26222051      -0.07077882      -0.22257083
V        7.79513537       7.32365943       4.41632011      -0.56914194       0.59930740      -0.80182474
V        9.31321396       8.85941613       5.74686393       0.07795040       0.20374581       0.47107962
V       10.86550096       7.50815534       4.34153389      -0.43826408      -0.76782883      -0.76169399
V       10.77621660       7.39739193       1.26778133      -0.27787228      -0.04961746       0.30894648
V        7.64023785       7.34424470       1.37388765       0.33573548       0.17522303       0.29811776
V       12.29913103       5.80877025       5.66910469       0.17061196       0.22140618       0.97428221
V       12.22367681       5.84088063       2.76388223       0.09103692       0.76714046       0.37649079
V       13.73266702       7.51772353       4.34736701       0.51607196      -0.72008589      -0.17119762
V       12.34062144       8.83397621       2.81152564      -0.50146688       0.95907444       0.00685448
V       12.29922512       8.90897882       5.83935650       0.29696050       0.29683461       0.25634358
V       13.84754183       7.36166879       1.41425847      -0.63503855       0.12187802      -0.79159094
V        8.13712549       6.84876830       7.04456352       0.12257305      -0.22751513      -0.59244185
V        9.50017483       8.50520469       8.50437677       0.46666732       0.09671333      -0.16623779
V        9.15538105       5.72835789       8.93353437       0.78035814       0.02572095       0.19886972
V       10.75006165       7.46925220      10.39311242      -0.20677149      -0.61166864       0.24192206
V        7.62907966       7.26976895      10.53762323       0.20765771       0.41897251      -0.62458844
V       10.97115568       7.15617366       7.20822013      -0.20456351       0.54808838       0.16660027
V        9.19088781       5.92229027      11.84904005       0.24553545      -0.30670461       0.44950805
V        9.15908791       8.77755489      11.98809408       0.46415044       0.63930109       0.45156516
V       13.81451885       7.35612733       7.48640345      -0.25232211       0.52875350      -0.41537832
V       12.25462998       8.97441325       8.85952903       0.51000404      -0.47243637       0.48093477
V       12.29132218       5.85010072      11.89156537      -0.28380703       0.61801368      -0.05872632
V       12.17531838       5.91862105       8.89049160       0.59312678      -0.46767871       0.58871199
V       13.85986665       7.51286887      10.52614516      -0.94005271      -0.64754841      -0.91856949
V       12.23223833       8.89318236      11.89372927       0.14721479       0.16271158       0.20417447
