118
Lattice="8.99241123843 0.0 0.0 0.0 11.9898816512 0.0 0.0 0.0 14.9873520641" Properties=species:S:1:pos:R:3:force:R:3 config_type=di-vacancy energy=-1050.95182037 pbc="T T T"
V        1.49440741       1.59935651       1.41395741       0.14153650      -0.51118389       0.41554536
V        0.01012159       3.01725598      -0.01185544       0.39782401       0.70188463       0.03507821
V        1.48322099       4.53202285       1.55684060       0.33525610      -0.27370316      -0.65666620
V        0.02395107       2.94601666       2.90916452       0.16496203       0.35423921       0.77539756
V        2.82961771      -0.02780892       0.06366464       1.26490320       0.78496873       0.24369587
V        3.09441308      -0.04138071       3.02268454      -0.03687963       0.36828338       0.09307275
V        3.16190791       3.01192150      -0.07411335      -0.50551362       0.27512464       0.62653725
V        3.10053786       3.00466772       2.90989837      -0.29054651      -0.01420778       0.35064074
V        4.66456636       1.57072718       1.51508675      -0.71478910      -0.55202131      -0.09792467
V        4.52328258       4.59926365       1.46328490      -0.10519748      -0.68650520      -0.24366892
V        5.91959951       0.11746114      -0.05953902       0.28863030      -0.58086166       0.36566518
V        7.74619362       1.45725420       1.37426397      -0.44179850      -0.59368543       0.18224428
V        6.16600174      -0.03370216       3.00938127      -1.20435575       0.37339713      -0.27526399
V        6.11933679       2.93835834      -0.03630929      -0.50581207       0.49365894       0.22679790
V        7.47349532       4.44296430       1.53314120       0.35317711      -0.08471216      -0.18383878
V        6.03917844       2.96577400       2.92811275       0.30827977       0.14751541       0.52854131
V        1.61121091       1.36105478       4.57582769      -0.40256855       0.22387842      -0.66440766
V        0.00912317      -0.16132431       5.95836153       0.33379174       1.34501828       0.74196731
V        1.50351460       4.50549157       4.47768076       0.06557209      -0.51955246      -0.22288527
V        0.00968053       2.91056635       5.96246353       0.24543148      -0.29722825       0.10996892
V        2.98513619      -0.09871989       6.13419242       0.14859626       0.43441478      -0.38900677
V        3.08365004       3.07001748       5.95603768      -0.58097736      -0.50994742       0.42539339
V        4.49988425       1.48683376       4.54567423       0.40721816      -0.23243644      -0.46133717
V        4.57353207       4.47304249       4.39061676      -0.49717612       0.39990744       0.21541530
V        7.47454905       1.41895320       4.43204132       0.68028146       0.17350222       0.12980934
V        5.93753165      -0.09498952       6.01001285       0.19383718       0.87784776      -0.35084080
V        7.44209997       4.42331986       4.60484275       0.08205402      -0.12838221      -0.83712810
V        5.93534893       2.95194386       5.98745185       0.55923689       0.04565515       0.24224157
V        1.54450638       1.50247969       7.61206012      -0.39275031      -0.26996783      -0.61838351
V       -0.03786964      -0.05561804       8.93661087       0.10099971      -0.14692195       0.42689620
V        1.52250046       1.35606841      10.73218596      -0.40041157       0.79597279      -1.02079622
V        1.54107236       4.49796496       7.53707631      -0.07587387      -0.21207469      -0.20914464
V        0.09687117       2.92633459       9.17981430      -0.29183341       0.08915782      -0.36584118
V        1.56223153       4.64056590      10.58043080      -0.26183604      -0.39898024      -0.34207080
V        2.88099620      -0.00074303       9.07014225       0.38860168      -0.07159607       0.24940642
V        2.86084371       3.04425767       9.08747226       0.99186379      -0.07286972      -0.15996900
V        4.43555059       1.53254848       7.47361763       0.00709546      -0.03785431       0.47974410
V        4.43555059       1.55505303      10.55738057       0.31281418      -0.60123867      -0.72527720
V        4.49315735       4.47689988       7.51034746       0.13735487       0.21153984      -0.04974659
V        4.60456992       4.45504450      10.58240653      -0.66565224       0.39238626      -0.85988553
V        7.54591067       1.50246087       7.52901345      -0.51549795      -0.29967130      -0.17347960
V        5.85549165      -0.05904715       8.94656481       0.59224709       0.62983004       0.52725932
V        7.53506295       1.39313694      10.50817538      -0.32778900       0.32107557      -0.09073163
V        7.60173927       4.40217950       7.53996465      -0.57640875      -0.00864799      -0.48932161
V        6.03195291       2.97499409       8.99375661      -0.00098660      -0.03785247       0.11830285
V        7.52948385       4.63179741      10.57252786      -0.04567160      -0.78092175      -0.55640867
V       -0.00210992      -0.06088440      11.98329588      -0.52389374       0.34368044      -0.46739723
V        1.43199304       1.56869500      13.58881478       0.04377563      -0.54099907       0.02290136
V        0.05605467       3.09995455      12.02553895      -0.07540904      -0.59949087       0.09885022
V        1.65555202       4.47794419      13.50178841      -0.76028156       0.12084421      -0.13688546
V        2.93633557       0.06184037      12.12554870       0.10336321      -0.49752586       0.07744767
V        3.05994124       2.94940363      11.97605151      -0.10199032       0.54980346       0.58968111
V        4.63293581       1.56165762      13.46848319      -0.93027749      -0.46197491      -0.00245630
V        4.51128706       4.53634124      13.39905026       0.15309943      -0.41395297       0.52802608
V        5.97385692      -0.07362487      11.96325628      -0.16835616       0.51298936       0.09669679
V        7.47033415       1.50356164      13.41532655       0.52289046      -0.31415801       0.14597484
V        5.96553061       2.98075194      11.92524693       1.03740426       0.13792299       0.32350046
V        7.59618839       4.41630130      13.53772796      -0.45892884       0.60076735      -0.57371024
V       -0.04258111       5.94240512      -0.00381216       0.37447685       0.48371251       0.09711094
V        1.47202517       7.41285911       1.37130978      -0.23876941       0.64084642       0.56180384
V       -0.08154850       5.97857046       3.06788180       0.38410154      -0.13094399      -0.51615415
V       -0.05312871       9.00814185       0.00845944      -0.16807948      -0.23604973       0.11800694
V        1.43942556      10.55295868       1.53526747      -0.53350554       0.40534050       0.14776421
V        0.00789624       9.03187887       2.97168238       0.30009715      -0.32523575      -0.05206868
V        3.00521341       6.03205639      -0.13353514       0.07965928       0.01776369       0.77335648
V        2.97828698       6.03997815       2.87402469      -0.02391562       0.06787416       0.57147119
V        2.95564131       9.01278012       0.01207399      -0.47871865       0.35895771      -0.02516577
V        2.85964886       9.08093352       2.94173591       0.67309202      -0.37599384       0.43021344
V        4.38895150       7.69905826       1.44577613       0.37753060      -1.31375701       0.39112229
V        4.43816608      10.53273093       1.43618912       0.20636159       0.06864686       0.64319040
V        5.99996484       5.85170013      -0.00288058       0.38322263       0.99956795       0.25939767
V        7.53373639       7.61781797       1.62476821      -0.47499719      -0.38024975      -0.92405408
V        5.95659278       6.07132646       2.89724426       0.21222503      -0.02342261       0.47037778
V        5.94328009       9.00946841       0.03575598       0.65633190       0.85736057       0.04427631
V        7.57178338      10.72738776       1.46765032       0.08095484      -0.59005856      -0.33078116
V        5.92851853       8.97534466       3.01798041       0.59152197       0.85908800      -0.23079474
V        1.46000142       7.43551419       4.42913416       0.38357383       0.19785542       0.18052718
V        0.05575426       5.90550594       5.92783174      -0.16490185       0.13196309       0.35077108
V        1.56244792      10.46254534       4.57378610      -0.23312907      -0.02730121      -0.46703594
V       -0.10328478       8.93790921       5.88704694       0.82974972       0.14487506       0.42370502
V        2.94009887       5.93984608       5.96339494       0.57981915       0.39161163      -0.11664461
V        3.08528707       9.03375112       6.16265240      -0.62530299      -0.79997192      -1.02716304
V        4.56150832       7.57062616       4.49310089      -0.84623227      -0.22618177      -0.31085296
V        4.49332670      10.40628397       4.54712310       0.14261195       0.28699977      -0.16208816
V        7.57692969       7.48027867       4.47693751      -0.76588478      -0.15717741      -0.34825161
V        5.90284341       6.03971472       5.87848543       0.70829984      -0.61471578       0.45600082
V        7.55865886      10.56528350       4.50580204      -0.18991296      -0.50352555      -0.85347147
V        6.15035581       8.98378387       5.96125927      -1.26421214      -0.11392897       0.12243978
V        1.46763152       7.40761872       7.42803462      -0.04680802       0.32383972       0.24110567
V       -0.05602343       5.90845073       8.86018761       0.30019294       0.59213761       0.72340077
V        1.36584359       7.45669218      10.44664539       0.71194111       0.41448582      -0.00805784
V        1.49572457      10.35773737       7.46803853      -0.43625928       0.59028994       0.30022393
V       -0.06385920       9.05031905       8.92757894      -0.14397389      -0.60123068      -0.28135499
V        1.48688080      10.38351600      10.55907405      -0.24500555       0.75774685      -0.28105541
V        3.09908899       6.06728090       8.96474156      -0.60787810      -0.59155749       0.27711563
V        2.87335669       8.93339324       9.01772885       0.43745677      -0.13455093       0.27404305
V        4.52913452       7.48650694       7.42641641      -0.18588393      -0.12786363       0.29742481
V        4.51266066       7.53262621      10.46423883      -0.17825063      -0.09271950       0.30901753
V        4.45085782      10.45313709       7.70676362      -0.09339368       0.24923655      -1.10896573
V        4.43700887      10.50779906      10.56669474      -0.35608385      -0.22260471       0.02788406
V        7.42852386       7.38843528       7.37721123       0.40386383       0.17814731       0.30023185
V        6.04448471       6.03538692       8.98898664      -0.40518588      -0.43982994      -0.22399390
V        7.44865753       7.47908382      10.39047811       0.04442939       0.30291567       0.14283826
V        7.38491659      10.60950231       7.30965995       0.47066165      -1.00132609       1.20994647
V        5.88073401       8.97506241       8.93290402       0.58775873      -0.21927755       0.37462867
V        7.40038376      10.30486297      10.48691273      -0.06287967       0.98972667      -0.33137700
V        0.01855760       6.09392509      12.00926266       0.20684401      -0.54002888       0.02839546
V        1.59476528       7.54881782      13.42238273      -0.97791591       0.04705904       0.35161752
V        0.01790109       9.07629525      11.87416010      -0.39084709      -0.80752294       0.86058418
V        1.31254581      10.63020047      13.63886671       0.05251342      -0.32637169      -0.07446707
V        3.03356048       6.12083270      12.04078032       0.21107718      -0.32277481      -0.56512589
V        2.96333726       9.03127674      12.12046824      -0.02635830       0.07262581      -0.87724492
V        4.63609698       7.60132530      13.63190460      -0.89409348      -0.77002630      -0.95327360
V        4.31449456      10.48700681      13.59248400       0.80293163       0.48251958      -0.55548623
V        5.91441556       5.98355683      11.99740826       0.94583500       0.38307773       0.07525969
V        7.44368056       7.47910264      13.45869860       0.07311919       0.12760528       0.12685650
V        5.91071812       8.98146003      12.02168156       0.24259382       0.04354547      -0.24240816
V        7.48603652      10.61430052      13.40243723       0.10089577      -0.40536352       0.73700170
