12
Lattice="12.7171899362 0.423906327751 1.19898816512 0.0 4.23906331521 0.0 0.0 0.0 2.99747041281" Properties=species:S:1:pos:R:3:force:R:3 config_type=gamma_surface energy=-106.74161812 pbc="T T T"
V       -0.06121157      -0.00383706      -0.06822569       1.44277534       1.13249737      -0.34441777
V        2.12943320       2.12933138      -0.01436624      -0.32922059      -0.01079833       0.30271283
V        2.11944534       0.01287825       1.53257197      -0.14023668      -0.27050722      -0.19099155
V       -0.01361279       2.18197651       1.45391182       1.23372449       0.10597667      -0.66407837
V        4.30188450      -0.07552585      -0.01801489      -0.39520195       0.50078075       0.16550102
V        6.41019606       2.12926411       0.02647733      -0.24023402       0.05518679      -0.38545693
V        6.39208527       0.02722631       1.44663256       0.07247224      -0.21659934       0.47242330
V        4.20161196       2.11314310       1.50959150       0.41663138      -0.19220231      -0.13982453
V        8.48932516      -0.00707129      -0.01387646       0.12728896       0.33882940      -0.01392344
V       10.65234991       2.12779466       0.01678027      -1.36762781      -0.81326875       0.54991068
V       10.58971886      -0.01910930       1.51381679      -0.91499071      -0.39178532       0.57021893
V        8.51648492       2.16518239       1.51581961       0.09461937      -0.23810972      -0.32207418
