128
Lattice="13.9242191178 0.0 0.0 0.0 13.9242191178 0.0 0.0 0.0 13.9242191178" Properties=species:S:1:pos:R:3:force:R:3 config_type=liquid energy=-965.19139342 pbc="T T T"
V        0.47050219       1.60654442       3.40719056       0.71423891      -0.14787620      -0.14325690
V        3.18129833       2.23714219       0.48361353      -0.39985109       1.25432852       0.28627512
V        1.42431590       0.84291577       0.30078100      -0.67136872      -0.19062861       0.11741491
V        6.54147583       3.05510539       2.86576423      -0.84515629      -1.59431496       0.12284080
V        5.41918378       0.73242804       0.66058283       0.14660220      -0.29008750       2.55170205
V        0.55479263       3.67802603       1.53979283       1.19819919      -1.05369165      -0.57594767
V        2.17548048       5.42498867       1.16708477      -0.02594810       0.03343160       0.44263207
V        6.84727238       6.45632171       2.47737261      -1.34542058      -0.02651015      -1.08168031
V        4.39201859       4.14753565       0.87152440       0.71835121      -0.11283870      -0.17506114
V        3.13241304       2.71948467       3.90176377       0.28798860       0.66666618      -0.21290384
V        0.28866505       0.60367135       6.87925105      -0.22892114      -0.34549226      -0.97578625
V        6.07595532       0.82006218       5.10988735       2.58952277       0.81890403       0.58393797
V        4.23534290       0.36272497       4.71023404      -2.66495214      -0.85876038      -1.75024464
V        5.02484612       3.27574781       5.88651068      -0.92377525      -1.01587029      -0.07877496
V        4.39760709       0.07770194       6.87146101      -0.67622828      -0.82993888       1.03129642
V        2.40901221       4.81578527       4.86794464      -0.04952442      -0.31176274      -0.12953117
V        4.66508382       6.81003450       4.14691470      -0.29290103       0.22283566       1.32782875
V        4.88969653       4.52369654       3.71635526       0.02097856       0.90093841      -0.27198400
V        6.45960519       5.22722712       6.84652913      -0.72262426       0.10767831      -0.01258499
V        0.56766501       0.20244215       9.49095474      -1.18580298       1.00548086      -0.10114855
V        1.59469942       2.72655027       9.57007817      -2.74141969      -0.83266989       1.08821245
V        1.58776554       2.85632776       7.27895140       0.86280148       0.79090016      -1.34589553
V        5.30678333       2.10336619       8.40354849       1.54566153       0.73115027      -0.05312656
V        3.75420468       0.94499347       9.53573804      -1.52390962      -1.39532999      -0.96476612
V        3.46730932       3.69184676       8.76736576       1.27641331       0.62429057      -0.13675794
V        0.77548305       5.65369397       8.37872951       0.00092902      -1.18905043      -0.86539962
V        3.71626118       5.15932774       7.06452783      -0.31940157       1.47271665      -1.42298321
V        2.06031402       0.38045389      11.28915474      -0.34559186      -0.28214800       0.63433788
V        3.41474539       2.78271756      11.07586957       2.76581429      -0.31268089       1.45178867
V        5.83108663       0.24739104      10.65221579      -0.20473315       0.15752611       1.25184669
V        6.40145276       2.17004251      13.32792384      -0.73737668       0.20483960      -1.15820451
V        4.12010117       0.25674473      12.87529263      -1.09273584      -0.07507655      -0.97404936
V        1.81673426       3.63615929      12.29442691      -1.36697497      -0.31274936       2.14783837
V        2.35290138       5.17908508      10.55719240      -0.35383215       0.37331822      -0.63499064
V        0.40220107       5.64026838      13.29273697       1.04461009      -1.38630988       2.94413877
V        0.71012295       6.95369858      11.63142709       0.28347056       0.97931570      -0.63898165
V        4.18313649       5.74600777      12.24879686      -0.99439478      -2.99563568       2.15037618
V        5.85174716       4.49343959      10.83755844      -0.06999377       0.85668048      -0.30237210
V        2.45267593       9.41446561       1.50808702      -0.84210043       0.66086881      -0.02182474
V        3.98133880       8.24656232       2.46216886      -0.84116267       0.15051198      -0.03031144
V        6.22977090      10.12968124       3.12173466      -0.49188679       0.19809188      -0.25002631
V        4.45273947      10.34277824       0.24548022       1.20083255       0.50163877      -0.22484525
V        6.42455943       8.15572561       0.50924068       0.65344775       0.94319026       1.26176967
V        2.02378175      12.86268557       2.47582965      -1.12862763       0.09329034      -0.48331001
V        1.86863020       7.29406106       5.49303858       0.42164560      -0.67144534      -0.54916944
V        0.94301774       9.40153867       3.91851046       0.32671096       0.02014922       0.40061413
V        5.02224944       8.56124967       6.41644011      -0.07528114       0.12836179       0.23371887
V        1.33120239      12.72739485       5.91924200       0.48896623       0.28919685      -0.25959459
V        4.07644686      11.19300235       4.67690999      -0.11575415      -0.13125116       0.40796801
V        0.97493054       9.88534883       8.87768696       0.36474424      -0.04424253       0.28770593
V        1.50637471       7.35915679       9.56480954       0.49141378       1.38398411      -1.37215825
V        2.78307507       8.64463505       7.35097161      -0.01669110       0.48984253       0.39493337
V        4.39857615       7.32036654       9.02048548       0.89790058      -0.45627974      -1.99638727
V        3.79669236       9.74478948       9.65164775      -0.64069526      -0.24937676      -1.00825473
V        6.25411947       9.92354635       8.93092829      -0.10454654      -0.71926980      -0.60580871
V        1.69693894      12.08085949       9.92006530       0.44780248      -0.36502139      -0.06960344
V        5.39399787      12.36903437       8.53695756       0.06802993       0.26634776       0.74385944
V        3.91881153      11.29564643       7.08335376      -0.03145573      -0.37584089      -0.12552720
V        3.45770349       9.43450519      12.39453075      -0.56401210      -0.02313975       0.88533838
V        0.68707083       8.24547096      13.84998798      -0.85054018       0.21158726       0.36297737
V        5.67374296       7.48474760      12.55249537       1.19778182       1.27161272      -0.13253908
V        6.31249770       9.81798572      11.34710959      -0.36584376      -0.29960618       0.66275667
V        3.74200217       7.37369254      11.11604282      -1.31502769       1.79049699      -0.79448879
V        0.06540949      10.81874192      12.29612039       0.69130734      -0.01586676       0.28317054
V        1.52623554      12.39961121      13.33836701      -0.62793972      -1.00947676       0.02405179
V        3.63382604      11.64920870      11.00474315       1.33153953       0.98913645       1.06979554
V        6.35219113      13.06675065      13.00136327       0.52819219      -0.91928561      -0.76973845
V        8.43784158       1.97216806       0.96639726       0.10701586      -0.95781515       0.59155556
V       10.59284969       0.05314310       1.67398279      -0.21313973       0.14184631      -0.00137868
V       13.00813721       0.15026396       1.57796213       0.69705196      -0.36855971       0.23780426
V       13.13778299       2.26096390       0.06696665      -0.50885897       0.41518548      -0.33188559
V        8.14075708       4.43560704       1.88490649      -0.03439146       0.62219201      -0.77359420
V        9.17727407       6.76236287       2.84239412       1.57380081       0.21068394      -1.01224741
V       10.07831217       3.92955576       1.16993547       0.76691273      -0.43024746      -0.45518377
V       11.85731933       5.93550887       0.40480903      -0.39514333       1.07568732       0.90619617
V       13.20411120       5.65154888       2.40116573      -0.82581702      -0.80885414      -0.87861097
V        9.92458126       3.12110431       5.65265906       1.71945515       1.27707598       1.95138091
V        8.22413304       1.57802799       5.54548021      -0.37756058       0.51937133      -0.33949080
V       12.46838556       2.73693699       3.51388960       0.31326445       1.22826309      -0.62529528
V       12.46904414       0.54753416       4.55925034       1.71525841      -1.37831012       0.58794459
V       10.47176543       1.56663459       3.85228576      -2.26331592       0.31243932      -1.37290487
V        8.64776800       4.29991176       4.19915874       0.18573420      -0.65910842       0.38854089
V        7.53576857       6.83528627       4.44153424      -2.01442222       0.05494661       1.81557752
V       13.65354359       6.34063779       4.42120301       1.14660714      -0.14391112       2.11250373
V       11.26873882       5.74820931       4.84223187      -0.63516461       0.15234629      -0.36235871
V       13.88875000       4.24701855       5.96933155      -0.47386467       0.07810138      -0.12207882
V        8.59619193       2.61960662       9.09213875       0.95373987       0.04649331      -0.39570092
V        7.32150495       0.68545920       9.03455082       0.79128122      -0.96510737      -0.62507851
V       10.00172895       0.14255484       9.76802788      -0.97717759      -0.06312237       0.18820455
V       12.32754396       3.17808071      10.14802734       0.20601368      -0.51156898      -0.06662820
V       12.04539036       1.12019402       7.16887481      -0.45465630       0.27019829       0.20066861
V        8.37426059       4.96512252       8.08064773       0.31518891       0.81765908       0.02982490
V       12.29433282       3.85787426       8.09526815       0.80176444      -1.22149634       0.51056310
V       10.81253247       5.46784328       7.42220151      -0.18171211       1.37554876      -0.10422206
V        8.14416287       0.12097136      11.57347223       0.98442944       0.50868382       0.09851220
V        7.40250062       2.87187019      11.42416321       1.17354868      -0.45265450      -0.51530829
V       10.13993624       1.86554430      13.41852535       0.34699809      -0.58130117      -0.21776664
V       13.22001115       0.80225706      11.61985493       0.85202270       0.29790400       0.46155107
V        9.13631052       6.35516414      12.79635737       0.59377253       0.35218017       0.38097561
V        9.79295975       4.60670558      10.93126467      -0.60378619       0.55683902      -0.47324200
V        7.40706362       6.75274764      10.85167082       0.39281146      -0.66965242      -0.69326720
V        7.11684715       5.38314074      13.49953043      -0.47774759      -0.52892720      -0.69594686
V       12.30609314       5.43612804      12.35097053      -1.48782842      -0.29377035      -1.96125940
V        8.35636608       9.62511647       0.18269798       0.09925363       0.11115316       0.18021360
V       13.67236010       7.81239952       2.62830926       1.82411215       1.42322746      -0.82370927
V       11.51175407       8.47368703       2.09587723      -0.97638542      -0.01602061      -0.69107508
V       10.16646753      10.65880157       3.03517870       0.62939038       1.87308295      -1.84512741
V        6.96956090      11.68458374       1.02594211       0.27937092      -0.65921787       0.64308843
V       13.28050623      11.58400948       1.11544285       0.41663529      -0.38990923       0.01041435
V        8.68562682       7.97375112       5.71815934       1.57139904       0.19941630       1.58150167
V        8.30743374       9.30426671       3.54506855      -0.29364858      -0.76406654      -0.02851862
V       10.89654820       9.67084059       4.61970780       0.08884709      -0.53794315       0.69897437
V       12.28501865       7.75881950       5.99957909      -0.41539968      -0.59912423      -0.14601444
V        7.51375325      12.98894437       3.64608500       0.35725954      -0.73205870       0.72189817
V        7.54177104      11.43206615       6.14295152      -0.56925925       0.31573846      -0.82987094
V        8.65999873      13.51543038       6.70985539      -0.04628472      -0.48764918      -0.04193500
V       12.55371844      11.90878249       3.62697683       0.03848689      -0.08363010      -1.06988227
V       10.51683098      13.07982813       4.41994229      -1.23017876      -0.72959360       1.03813346
V        9.75899595       7.71365988       8.71983524      -0.61469596      -0.43881556      -0.11059519
V        7.00194411       7.27518810       8.06166186       0.44007288      -0.15505511      -0.15485821
V        9.90294227      11.40073665       7.81065900      -1.34790190      -0.11731370       0.26928413
V        7.35846998      11.65080810      10.15433087       0.61827301       1.07234886       0.08200118
V       11.87143171      11.35623560       7.36880025       0.94301118       0.56517064      -0.73155742
V       11.51241266      10.50732864       9.41568869      -0.03933125      -0.29636645       1.35224215
V        9.74074393      10.34710604      11.14991254      -0.13945767       0.09941992      -0.71852428
V       11.48437605       8.62390866      13.54243208       0.62324390      -0.21973101      -0.24915587
V       12.31390199       7.56614783      10.85515188      -0.23383694       0.19154551      -0.12368811
V       10.18227340      12.72937058      13.28107073      -0.50655423       0.34636965       0.09729866
