54
Lattice="8.96924313065 1.25181351975e-07 5.42077165329e-08 1.2518135246e-07 8.96924294695 -2.20964602923e-07 5.42077168957e-08 -2.20964603612e-07 8.96924288464" Properties=species:S:1:pos:R:3:force:R:3 config_type=short_range energy=-457.70724363 pbc="T T T"
V        1.53930012       1.47605922       1.50222118      -0.57335071       0.24043523      -0.26616532
V       -0.04452069      -0.05287356       2.97387056      -2.64497614       0.67253717      -1.72382047
V        1.44182028       1.46026704       4.51375435      -2.58031496      15.37921853       1.63110321
V        0.00540278       0.00191241       5.96271903      -1.52812589       0.07198071       1.19218445
V        1.42104286       1.50023072       7.48913069       0.09504520       0.09389721       0.43064756
V       -0.00079080       2.95590458       0.06050313       0.08145865       0.18475738      -0.19015583
V        1.46122915       4.51098582       1.45064397       0.33434795      -0.17369329       0.42435904
V       -0.00832321       2.94673525       3.07559675      -0.14465604       0.18126698      -0.84674548
V        1.46804440       4.47460981       4.44277673       0.37167476       0.10088379       0.50969341
V       -0.02861724       3.05975717       5.97114863       0.09867131      -0.65057950       0.40014141
V        1.48036563       4.47383665       7.50996275       0.16206961       0.32756765      -0.21814350
V        0.00890263       6.01349801       0.01650900       0.01882337      -0.61845542      -0.26679611
V        1.45563638       7.51260409       1.45470768       0.00098450      -0.28005559      -0.14412434
V        0.04937714       5.90798982       3.01235490      -0.64674942       0.11712561      -0.54151037
V        1.42357230       7.48488725       4.49278570     -19.42486500     -77.95376527      11.17178488
V        0.01014410       5.99915986       5.99229965      -0.33816210      -0.54276898       0.48530503
V        1.51988701       7.44791687       7.48278972      -0.15773494       0.40830397       0.39723636
V        2.99257870       0.02079149       0.05013855       0.13376919      -0.01668667      -0.39649397
V        4.48574498       1.47100557       1.44660999      -0.07226067       0.39266236       0.43570703
V        2.97190677      -0.00121773       3.01264772       8.19036291       1.57098416      -9.10084959
V        4.48015785       1.50101128       4.43323431       0.07489372       0.47350036       0.54940248
V        2.98710280       0.06543670       6.01322103       2.91893284       0.27323507       3.95522198
V        4.52484095       1.46378370       7.49841625      -0.38093935       0.30135151      -0.33543497
V        2.99820498       3.02354965       0.00433236      -0.08733966      -0.28103722      -0.19395223
V        4.52609495       4.48112480       1.44481264      -0.20252098       0.14703654       0.22079108
V        2.95313577       3.07320761       2.99092496       0.23424254      -0.44507163      -0.24957003
V        4.49458603       4.56465779       4.44014772      -0.25676301      -0.45260714       0.15548586
V        2.96950280       3.04669265       5.96164141       0.18092465      -0.14393326       0.13515122
V        4.52307411       4.53346096       7.43633860      -0.29337431      -0.19681388       0.00069697
V        3.05663817       6.01653372       0.01065859      -0.41658376      -0.03455086      -0.17942273
V        4.48060367       7.54712861       1.47998974       0.09498826      -0.64616583       0.06692733
V        3.02557666       5.94772533       2.97935881       0.08681007       0.03527819      -0.49272225
V        4.49735697       7.43808809       4.49749121      -0.15609137       0.26718685      -0.03791488
V        3.00151797       6.01061166       5.96841575       0.18762308      -0.57741531       0.39137080
V        4.50261904       7.45928559       7.49295813       0.05943772       0.25783416      -0.26327156
V        6.00756507      -0.02486165       0.04118304      -0.36456043       0.00575718      -0.33136107
V        7.40977215       1.48615970       1.48755454       0.37695641      -0.17152452       0.00390784
V        5.95930659      -0.06942347       2.99078806       0.16539072       0.49055690      -0.06938550
V        7.47618743       1.48653244       4.51641123      -0.47204412       0.11110194      -0.11570863
V        5.99017754      -0.02107583       5.95136289       0.07524397       0.12699312       0.36668983
V        7.55133673       1.40532555       7.53067827      -0.11252217       0.19421344       0.08367238
V        5.93828978       2.96127314      -0.02997522       0.43385720      -0.14222001       0.10893923
V        7.53732659       4.45522535       1.48677847      -0.41837750      -0.05116240       0.13952481
V        5.97990017       3.00183433       3.00220041      -0.01844638      -0.12789658      -0.20947749
V        7.46769461       4.46566770       4.48993890      -0.00129723       0.09083277      -0.08176567
V        5.91594660       3.05901977       5.93138413       0.32615443      -0.58180735       0.22773377
V        7.48585312       4.39735321       7.51648979      -0.06665375       0.60695526      -0.36435131
V        5.99873373       6.00773643      -0.03973592       0.18868744      -0.12504386       0.23958850
V        7.51694049       7.45827536       1.50286574       0.04432001      -0.05567753      -0.19596849
V        5.95564719       5.99404905       2.99846238       0.25812321      -0.16763204      -0.28621704
V        7.45657393       7.45393864       4.48395826       0.14062376      -0.07891239      -0.14642176
V        6.01079266       6.00116328       5.89040255      -0.05702382      -0.21159028       0.72989469
V        7.47621779       7.45341643       7.49210523       0.34803517       0.38703580       0.03335646
V        1.75886834       8.76089837       4.30628546      15.73328109      61.21657697      -7.23876703
