121
Lattice="9.04215026885 0.0 0.0 0.0 12.0474946843 0.0 0.0 0.0 15.109870339" Properties=species:S:1:pos:R:3:force:R:3 config_type=sia energy=-1081.8780363 pbc="T T T"
V        1.61990414       1.74125183       1.54009390       0.12336864      -0.55775086       0.26652868
V        0.17520995       3.11677651       3.15477645      -0.30471008       0.36888619      -0.26157671
V        3.15390149       3.06696921       0.04316254      -0.14483782       0.42276353       0.19493684
V        1.64714104       4.68753192       1.70099390       0.01524858      -0.46384834      -0.57507944
V        3.17096806       3.09415906       3.16234069      -0.08509405       0.23608282      -0.31136076
V        0.09761348       3.20499773       0.12866731       0.28828765      -0.55882773      -0.26871112
V        3.06103259       0.05249309       3.07193676       0.37805461       0.63142304       0.02508166
V        0.11819404       0.20199620       3.19589054       0.15998867      -0.27372486      -0.29410120
V        3.17539936       0.17951046       0.10876603      -0.35674453      -0.13707954      -0.19979723
V        0.08271692       0.15694853       0.01865826       0.39279499      -0.14148923       0.51735942
V        3.06084443       0.06819048       6.06955771       0.13511636       0.32327942       0.30897587
V        0.16800229       3.13391835       6.15819289      -0.38956597      -0.09577405      -0.11714668
V        3.13254475       3.06418435       6.05578402      -0.22865876       0.48156623       0.44052387
V        1.60274348       1.64551341       4.65894022       0.11349473      -0.20055457      -0.22876322
V        1.66825317       4.66159335       4.65354929      -0.18164018      -0.13909514      -0.05803332
V        0.15216537      -0.04439360       6.18467713      -0.50040781       0.98748333      -0.12993435
V        1.65012346       1.62871967      10.62239162       0.09284277       0.09780789      -0.04371548
V        1.71854030       4.69474805      10.69530560       0.24891965      -0.13255286      -0.27944305
V        3.15390149       3.12181934       9.14141920      -0.24226432       0.20586085       0.21024379
V        0.16009277       0.01617571       9.08902462      -0.24410837       0.80602365       0.36256282
V        1.57260884       4.59503935       7.58189725       0.22888302       0.12901640       0.34742727
V        3.11043534       0.18254181       9.03927376       0.21686370      -0.44867982       0.95057070
V        0.09973504       3.13351380       9.14413818       0.16815693      -0.09169343       0.01600119
V        1.61060878       1.59121837       7.66238488      -0.07467103       0.04581711      -0.30137985
V        1.63961443       1.55843059      13.63350401       0.21551379       0.48192373       0.26571851
V        0.11860236       3.03705095      12.12564279       0.28768070       0.04952769       0.07265712
V        1.68293005       4.68201868      13.73624216      -0.07634035      -0.58774094      -0.14681849
V        0.21511037       0.14997231      12.12554870      -0.31214203      -0.21112271       0.16380953
V        3.11658834       3.21132948      12.16873260       0.15023462      -0.36455990       0.02632671
V        4.58069176       1.53490054       7.59321538      -0.13825882       0.06305176      -0.06047647
V        3.14910327       0.07797083      12.15019833       0.13594777       0.06708415       0.01240439
V        1.64292614       7.69122119       1.71221795      -0.31573477      -0.43787051      -0.11670711
V        0.12906904       9.15358408       0.15641508      -0.41727118       0.08700563       0.07074955
V        1.55869402      10.70800675       1.58550755       0.12451573      -0.14523481       0.18908651
V        3.15081558       9.23126805       0.24512271       0.30973414       0.10444106      -0.38234872
V        3.18223916       6.12157595       0.16938530       0.21114748      -0.14190603       0.18283750
V        3.10757524       6.19129114       3.10212785       0.24864179      -0.36286768       0.51937467
V        0.12394155       6.10397311       3.20192123       0.02726826       0.40408804      -0.41071015
V        3.16474921       9.16856202       3.09381095      -0.19989548       0.23965565       0.39695800
V        0.11259049       9.16557019       3.17909680       0.18811493      -0.03344905      -0.22755072
V        0.05968278       6.03720272       0.05898713       0.39416593       0.51259765       0.86201062
V        0.11958082       6.16475985       6.17386704      -0.04190235      -0.08556814      -0.30348755
V        3.08778027       6.17412106       6.10990031       0.20860918      -0.05229005       0.17437783
V        3.16322507       9.18095269       6.11527243      -0.19956182       0.02006404       0.05763686
V        1.64852405       7.60734658       4.68040046      -0.03611526       0.43978534      -0.11759395
V        1.63978378      10.62389694       4.60271649      -0.14714380       0.03495247       0.16214488
V        0.07916784       9.13054326       6.20000318       0.35920676       0.03519844      -0.36619116
V        1.62964168       7.78069370      10.57713791       0.37468230      -0.84800609      -0.05239464
V        1.67164014      10.65936607      10.60084671       0.19461945       0.13702701       0.51475732
V        3.27171167       9.11217834       9.19362562      -0.60058442       0.52209752      -0.36571525
V        1.63306629      10.64920515       7.68457896       0.34446019      -0.21103680      -0.27389820
V        0.17306864       9.22754238       9.20929036      -0.42468140      -0.45623039      -0.31589002
V        0.08997868       6.10320163       9.14143802       0.26157478       0.32109079      -0.72278924
V        1.60513317       7.70669777       7.69091071       0.21425658      -0.29311720      -0.27242643
V        3.12059626       6.18078211       9.01607300       0.13114898      -0.07698032       0.73799726
V        1.84957849       7.80368748      13.97361246       0.07904385       0.27709667       0.22855053
V        0.11838785       9.12013773      12.20758870       0.12510576       1.01786707      -0.07278165
V        1.54673613      10.61044313      13.67875771       0.43598145       0.45394227       0.10056438
V        3.08331134       9.15410152      12.16976751       0.70566422       0.22470573      -0.21984451
V        0.64571685       6.60821800      12.62117564       0.04506623       0.36969481       0.03009417
V        3.19491207       6.24273548      12.17541246       0.39725823      -0.16635280       0.15196626
V        7.65022942       1.56442365       1.62098608       0.38612614       0.56528880       0.21656025
V        6.29385994       0.20476128       0.06084188      -0.88431171      -0.58113194       0.15639659
V        7.65149012       4.67086990       1.52568986       0.02175996      -0.47104544       0.72155284
V        6.18817699       3.05878402       3.13882005      -0.21428843       0.57691073      -0.30100857
V        4.65712443       4.51196445       1.55211766      -0.17319122       0.54314502       0.39128033
V        4.71173936       1.56927831       1.64821358      -0.37853052       0.23090911      -0.15344603
V        6.15695099       0.14792037       3.22751168       0.22981768      -0.16057531      -0.49639897
V        6.15693218       3.03383332       0.17866937      -0.03868783       0.26985406      -0.74226529
V        7.63882661       1.74080964       4.66119821       0.22401344      -0.64964792       0.14370252
V        6.07238959       3.15991337       6.10934522       0.18916830       0.20292950      -0.03475224
V        7.64362482       4.70346010       4.56960884       0.17616632      -0.40628320       0.36241230
V        4.60725127       4.64322844       4.64744333       0.23974770      -0.01977110      -0.36023129
V        4.69235835       1.63045079       4.64062235      -0.47069947      -0.08962739      -0.23536131
V        6.12517932       0.16083414       6.14567050      -0.02249125      -0.28372874      -0.16885494
V        6.18592843       0.03461457       9.20806729      -0.20067602       0.26033203      -0.31201050
V        4.65127250       4.71104315      10.78327280      -0.70661699      -0.00015184      -0.85645687
V        7.53162894       1.54971855       7.61253053       1.16094605      -0.03019936      -0.15976805
V        7.70226648       1.60232952      10.63800933      -0.06716669      -0.45099652      -0.02603820
V        5.94630955       2.80499631       8.93181266      -0.34720181       0.45736300       0.13315015
V        7.08247879       4.27338989      10.10700735       0.43118762      -0.37569719       0.41132473
V        4.71988691       1.59541444      10.71402803      -0.55886785       0.05101520       0.06849468
V        7.60295292       4.63654858       7.59553922       0.33912771      -0.10549721      -0.31808309
V        4.57294876       4.72788393       7.66495334       0.07568992      -0.63458670      -0.42083452
V        8.44308198       5.41987998      11.39716151      -0.60199168      -0.78846703      -0.03709646
V        6.19265533       0.05066195      12.18698462      -0.11559591       0.58186782      -0.11723473
V        7.70024370       1.58384229      13.70641798      -0.08497016       0.48898807      -0.23145881
V        4.60173803       4.61089226      13.65053294       0.19673503       0.02069819       0.45055840
V        4.62863623       1.62849388      13.63152827       0.23184581      -0.12327891       0.14271754
V        7.67995951       4.55734987      13.68252102      -0.13233864       0.38334763       0.75061219
V        6.21338172       3.17500420      12.19451123      -0.29975177      -0.50467037       0.23487786
V        4.63667089       7.62975705       1.78184845       0.26681468       0.26167138      -1.09056485
V        6.10288175       6.01912004       0.09605359       0.17081276       0.53434300      -0.08044325
V        7.69509739       7.59256621       1.64240868      -0.00891712       0.49538828      -0.30624080
V        6.16002750       9.26316203       0.01739850      -0.00240219      -0.42550615       0.76249500
V        7.67752277      10.73275047       1.70501123       0.01775890      -0.34186231      -0.50847438
V        6.18975759       9.16037683       3.10615459      -0.19499223       0.25574014       0.29541568
V        4.75941100      10.78534262       1.64010366      -0.42287666      -0.43901344      -0.28892879
V        6.24537920       6.22702369       3.06302714      -0.51499569      -0.53190903       0.14570733
V        7.66801102      10.62267387       4.67957253      -0.21430593       0.16507638      -0.26590667
V        4.58055063      10.74629835       4.64636139       0.43461892      -0.53964268      -0.12099408
V        6.18871327       9.17032136       6.12603546      -0.29900133      -0.06040721      -0.10025262
V        4.58573458       7.72118648       4.60990440       0.51856850      -0.36677631       0.07427142
V        7.68631008       7.69168219       4.58764446       0.04453164      -0.41001946       0.28375663
V        6.24258495       6.06040348       6.15000770      -0.73653922       0.59058581      -0.35664615
V        7.73487549       7.74049223      10.71224046      -0.43892705       0.10152776      -0.19237785
V        6.21394621       9.19408662       9.08802735      -0.09491291      -0.17139175       0.43971294
V        7.75497153      10.70490203      10.70913574      -0.29148120      -0.42632953      -0.33857956
V        7.55334319      10.66604593       7.61155208       0.79687644      -0.17898123       0.26919892
V        4.72737588       7.70049773      10.59021538      -0.26342258       0.05103057       0.37955954
V        6.08404642       6.21463302       9.06993527       0.27124571       0.66345542       0.11605863
V        4.71723378      10.62559043      10.67310212      -0.42866492       0.27993713      -0.04132571
V        4.64263572      10.66087139       7.58038252       0.06476353      -0.10223770       0.25966376
V        4.68324175       7.74150832       7.59136195      -0.12987459      -0.65617537      -0.10831778
V        7.71469478       7.60213441       7.56995817      -0.32780682       0.27829326       0.67451795
V        6.08944676       6.20828244      12.25745245      -0.16846634      -0.21079111      -0.61238153
V        4.66849902       7.77508638      13.71300377      -0.00919711      -0.55296009       0.20732502
V        7.66864137      10.69662276      13.67951037       0.22093420      -0.16466507       0.01312746
V        6.19304107       9.23279218      12.12884159      -0.01895721      -0.43729018       0.52813850
V        7.57329811       7.57196213      13.73595991      -0.04106484       0.52607491      -0.07710788
V        4.64541115      10.69445886      13.71996587       0.12559811      -0.02796253      -0.23631542
