12
Lattice="4.23793285881 0.0 0.0 2.1189664294 3.67015751602 0.0 0.0 0.0 26.4364938691" Properties=species:S:1:pos:R:3:force:R:3 config_type=surface_111 energy=-102.22912613 pbc="T T T"
V        1.92685217       1.13508134       8.54188063       0.12212338      -0.11830324       1.06486657
V       -0.11892477       2.35238295       9.41660786       0.13815525       0.59829637      -0.18453840
V       -0.08195432       0.03472393      10.11215130       0.30023184      -0.54561997      -0.21752450
V        2.12354957       1.20812170      11.04766936      -0.55656980       0.22777686      -0.38319865
V        0.00874052       2.47205836      11.91071584       0.01807143      -0.19288863       0.13159039
V        0.02879360       0.00396798      12.83303614      -0.00039621       0.26446172      -0.51052344
V        2.13368986       1.27651130      13.69626572       0.19684264      -0.26500864      -0.22627730
V        0.06477330       2.48957006      14.51077949      -0.29026554      -0.27423658       0.20163621
V        0.05481909      -0.00996809      15.34400088       0.17426264       0.49234426       0.66505647
V        2.20580754       1.27295385      16.27937338      -0.31306343      -0.49369137       0.68795818
V        0.02288188       2.40060954      17.07533677       0.36696316       0.54875198      -0.24123394
V        0.10683731       0.04461716      17.85114584      -0.15635536      -0.24188276      -0.98781160
