144
Lattice="12.1554669596 0.0 0.0 0.0 12.8928196735 0.0 0.0 0.0 28.2247684822" Properties=species:S:1:pos:R:3:force:R:3 config_type=surf_liquid energy=-1219.16675459 pbc="T T T"
V        0.00000000       2.14879867       0.00000000       0.05215688       0.02007929       0.81281187
V        3.03886674       2.14879867       0.00000000       0.16015633      -0.08789811       0.88986444
V        1.51943337       4.29760674       0.00000000      -0.04391062      -0.01389189       0.69221844
V        1.51943337       0.00000000       0.00000000       0.01371882       0.02416246       0.76544910
V        0.00000000       0.00000000       2.14879867       0.28462023       0.06008869      -0.35028033
V        3.03886674       0.00000000       2.14879867       0.05736923      -0.24819613      -0.36303862
V        1.51943337       2.14879867       2.14879867       0.04506008      -0.00051915      -0.35815564
V        0.00000000       4.29760674       2.14879867       0.13468520      -0.28701597      -0.94890481
V        3.03886674       4.29760674       2.14879867      -0.04106470      -0.14573162      -0.48414281
V        6.07773348       2.14879867       0.00000000       0.01608922       0.08544187       0.48856429
V        4.55830011       4.29760674       0.00000000       0.04676430       0.06777993       0.70694296
V        7.59716685       4.29760674       0.00000000       0.02649519      -0.04200056       0.80203015
V        4.55830011       0.00000000       0.00000000       0.04779252      -0.01547695       0.64364638
V        7.59716685       0.00000000       0.00000000       0.02556608      -0.01472012       0.47216135
V        6.07773348       0.00000000       2.14879867      -0.34281519      -0.28385286      -1.51264477
V        4.55830011       2.14879867       2.14879867      -0.57418722       0.11552736      -1.16753260
V        7.59716685       2.14879867       2.14879867       0.12337048       0.34929783      -0.91721506
V        6.07773348       4.29760674       2.14879867      -0.29731811      -0.22055946      -0.30138182
V        9.11660022       2.14879867       0.00000000      -0.03087181       0.06658086       0.79054185
V       10.63603359       4.29760674       0.00000000       0.00359667      -0.00647388       0.63105032
V       10.63603359       0.00000000       0.00000000      -0.17541014       0.02651133       0.76823268
V        9.11660022       0.00000000       2.14879867       0.32525383       0.06498332      -0.78246629
V       10.63603359       2.14879867       2.14879867      -0.00004314      -0.12328233      -0.10019800
V        9.11660022       4.29760674       2.14879867       0.12633224      -0.37600184      -0.17860368
V        2.86565133       2.15014405       4.28912991       0.55435859      -0.94781286      -0.13514253
V        1.50579140       4.45650278       4.20776731       0.45338992      -1.34840779       0.28218603
V        2.92733186       4.22549245       6.36243672      -0.24880151      -0.60477589      -0.28399514
V        1.50955470       2.01745941       6.64509836      -0.05936688       0.38849997      -0.39596289
V       -0.02863553       0.02618440       6.95159113       0.47024828      -0.04955939      -2.34486337
V        3.07621751      -0.13804358       6.27007587      -0.18299765       0.44715261       1.94138784
V        5.96887055       4.10992143       6.25328213      -0.42137901       0.43221546       2.11094645
V        7.38695819       2.07693841       6.64162672       0.61731142       0.37149434      -1.05071751
V        5.92469879       1.99841710       4.01751355       0.21060550       0.81704538       2.04658364
V        4.37791562       3.99328729       4.46479145       0.33844790       1.31951196      -1.77549207
V        7.31055373       4.19360788       4.58880168       1.82787576      -0.17883062      -2.27184818
V        4.48860374       1.93543823       6.30334346      -0.42788538       0.33519109       0.72769683
V        7.55186610       6.43435343       6.25671615       0.43798176      -0.65502521       0.07693260
V        1.49851882      -0.05106848       4.38141549      -0.12436596       0.14819109      -0.40875270
V       10.98874911       4.06332235       4.35161954      -2.21973166       0.84252076      -0.27040487
V       12.20551889       2.06522513       4.55316320       0.28153970      -0.05567435      -0.67046723
V        0.05414913       4.35996466       6.27420609      -0.78630214      -0.14610083       1.70389111
V        9.09884684       2.19214250       4.36681387       0.08609874      -0.31549069      -0.29624239
V       10.50309493       2.06896962       6.66742416       1.15555200       0.22826288      -0.71426028
V        9.20660900       4.12618831       6.47786662      -0.85384237       0.78406600      -0.00185958
V        9.11268639       6.18605074       4.01927289      -0.19635929       0.57979583       1.56367867
V       11.04077677       0.00127422       4.47923312      -2.03118685       0.31745952      -0.42457419
V       12.18181008       6.32642191       4.17135735       0.14120586       0.90129474       0.80777089
V        3.11391640       6.42701499       4.36237317       0.04738985       0.07374619      -0.78522774
V        5.83028694       6.18851569       4.44301134       1.20102934       1.30156382      -1.35620293
V        3.00344466       2.08866109       8.61355958       0.18161767       0.65170023       0.02014293
V        1.44265259       4.71426077       8.40035909       0.44227710      -1.35490500       0.70232545
V        0.32313126       0.35721361      10.95948944      -0.61896981      -0.54864495      -0.35890444
V        1.58396460       6.35627431      10.85355247      -0.66544117       0.22764741      -0.75279355
V        3.19985141       4.28905463      10.44457558      -0.12608024       0.29599775       0.13095262
V        1.60784275       2.19072186      10.73237413      -0.73689092       0.62253380      -0.21296018
V       -0.33302216       4.42475933      10.43930695       1.06320048      -0.27182155       0.33152191
V       10.52351084       0.15137319       8.85707347       0.14720861       0.61328751       0.92955002
V        4.24032928       4.49474734       8.23971311       1.20713643      -0.06966511       0.54479414
V        5.95108895       2.55405930       8.71653294      -0.26600871      -0.39719697      -0.98871614
V        7.17761507       4.63585236       8.66449588       1.19777086      -0.83695881      -0.33059371
V        4.83202391       0.25310561       8.99789626      -0.59555476      -0.82594490      -0.83022625
V       12.28059677       2.23288025       8.88485606      -0.70370056      -0.11735431      -0.44525841
V        9.22669563       4.61318788      10.55455810      -0.57798411      -0.42799434       0.58989253
V        9.26201423       2.24618353       8.71724797      -1.60624167       0.17441293       0.98948991
V       10.46668498       4.30216975       8.52727646       1.01621666       0.82272961      -0.27180860
V        3.19299279       0.45339139      10.81290881       0.63606438      -1.08862752       0.12450041
V        5.37828609       5.32375583      10.61580584       0.33116254      -0.90028539      -1.04846578
V        5.23599561       2.18846387      10.91564696      -1.12106881      -0.08235758       0.00293164
V        7.41098687       3.13039025      10.77489945       0.42346947       0.25801049       0.05958590
V        8.55425934       0.93021780      10.98348049       0.89472360      -0.83942919       0.16535737
V        5.90751931       0.07003901      11.44335605       0.82119123      -0.39311367      -0.92978584
V       10.60922006       2.49579397      11.45765660      -0.08007246      -0.61623256      -2.17722383
V        7.41753501       0.40689203       8.90897882      -0.14787395      -0.03664962       0.13667474
V        0.00000000       6.44640540       0.00000000      -0.15696468       0.02067552       0.64041092
V        3.03886674       6.44640540       0.00000000      -0.01076181       0.06838162       0.87191566
V        1.51943337       8.59521348       0.00000000      -0.04734251      -0.02614813       0.69371654
V        0.00000000      10.74404037       0.00000000       0.07071006      -0.07774785       0.89460944
V        3.03886674      10.74404037       0.00000000      -0.01041429       0.03290626       0.59638225
V        1.51943337       6.44640540       2.14879867       0.16002472       0.05174217      -0.78262023
V        0.00000000       8.59521348       2.14879867       0.11525462      -0.18136998      -0.24070332
V        3.03886674       8.59521348       2.14879867       0.13845412       0.00515089      -0.33057719
V        1.51943337      10.74404037       2.14879867      -0.25621886       0.04211736      -0.78528818
V        6.07773348       6.44640540       0.00000000       0.13906727      -0.09364516       0.76574313
V        4.55830011       8.59521348       0.00000000       0.07312751      -0.04457833       0.78664471
V        7.59716685       8.59521348       0.00000000       0.02126929       0.04364460       0.73069834
V        6.07773348      10.74404037       0.00000000      -0.01389356       0.07852370       0.79860397
V        4.55830011       6.44640540       2.14879867      -0.15410207      -0.11354283      -0.33959103
V        7.59716685       6.44640540       2.14879867      -0.32787511       0.12272967      -0.39666733
V        6.07773348       8.59521348       2.14879867      -0.07624386      -0.02732246      -0.02004693
V        4.55830011      10.74404037       2.14879867       0.16004656      -0.24103941      -0.62353714
V        7.59716685      10.74404037       2.14879867       0.05715957      -0.17780824      -0.19103218
V        9.11660022       6.44640540       0.00000000       0.08368710      -0.02669290       0.61971966
V       10.63603359       8.59521348       0.00000000      -0.05907062       0.02252253       0.74502995
V        9.11660022      10.74404037       0.00000000       0.02656443      -0.00475354       0.73332287
V       10.63603359       6.44640540       2.14879867       0.16879504      -0.14020388      -0.85663698
V        9.11660022       8.59521348       2.14879867       0.13781869      -0.05464476      -0.00887240
V       10.63603359      10.74404037       2.14879867       0.01262526       0.10398882      -0.31066645
V        1.65891076       8.34390014       4.32955718      -1.06910831       1.55145701      -0.65768776
V        3.04549956      10.73632560       3.99965668      -0.04308991      -0.44536053       2.01311216
V        2.87856887       8.74466363       6.48619292       1.36848397      -1.05423895       0.52063861
V        1.64268153      10.67884116       6.50731446      -1.05254699       0.73326024      -0.02468468
V        9.22058967      10.97868228       4.24672689      -0.19798382      -0.87110066       0.48776353
V        1.77826390       6.35854170       6.30852741      -1.14831563       0.97534807       1.18286710
V       10.52924988       6.59039876       6.56006655      -0.07875414      -0.82976892      -1.08078804
V        7.44337008      13.07333643       3.92293235       1.21212195      -1.03301678       2.37640790
V       10.81337921       8.45355336       4.50716624      -1.48462974       0.56632132      -1.71625768
V        7.71151479      10.57920772       6.51381556      -0.79186805       1.63582991      -0.23356259
V        4.45426361      10.65428561       6.47205231       0.13587723       0.33011248       0.02355409
V        4.52356483       8.63243254       4.45831857       0.17247682      -0.12518969      -0.85989870
V        7.52831723       8.59896738       4.22320625       0.21480408       0.07945330       0.38664548
V        6.10362500      10.75598885       4.56765192       0.22491431      -1.11880505      -1.96467929
V        6.08764037       8.68205168       6.64922860      -0.05431711       0.30064218      -1.54328941
V       -0.24855860      10.74441670       4.37586461       1.25749925      -0.79827854       0.00695355
V       10.58532309      10.90238132       6.65935188      -0.55287610      -0.34685827      -0.46192848
V       -0.00005993       8.55956560       6.27742371       0.55698770       0.12749072       1.51342129
V        8.82176429       8.66726191       6.49943034       1.71500291      -0.93466684      -0.34347000
V        8.82694824      13.11821381       6.33754247       0.83701405      -0.50807288       0.92222556
V        4.69295107       6.58589221       6.38005838      -1.25955608      -0.50795952       0.87869800
V        4.72315157      12.65372821       4.46464092      -1.52031884       1.03005789      -1.67303767
V        6.10717191      12.78864260       6.32823771       0.44412409       0.08344334       1.57867979
V        1.54034793       8.53183006       8.87123290      -1.17965185       0.43898832      -1.27821415
V        2.91631479      10.62850698       9.23147503      -0.57148547       1.13588037      -1.92263667
V       12.03024307      11.17221011       8.66223789      -0.00715980      -2.24897157       1.49707260
V        0.94055184      10.39367691      11.06646131      -0.18210554       1.44076033      -0.65760375
V       10.54016346      11.63980044      11.16129653      -0.23137356      -0.31760494      -1.06300550
V        6.10644748       6.86647463       8.31195911      -1.10880056      -0.55598819       0.96184349
V        2.71006700       8.71684341      10.85505779       0.81221957      -0.49817912       1.00057519
V       11.54261316       8.51009698      10.49218135       2.09507331       0.46453894       0.16725726
V        4.48208382       8.90679611       8.71160301       0.15632866      -0.28704625      -0.60525104
V        6.19173332      10.71271087       8.44447440      -0.50156810       1.78260875       2.02694933
V        7.63552431       8.83596134       9.10436949       0.01589675       0.17086497      -1.56824658
V        4.49713704      10.96852136      10.78976449      -0.02386429       0.09461077       0.16373342
V        7.78599055      10.79051715      11.08875888      -0.81672141       1.38173674      -0.75452925
V        9.20944089       9.14174848      10.90953160      -0.40378645       0.42970852       0.10875370
V        8.83857684       6.36277542       8.67262462       0.79777988       0.82688203      -1.09364958
V        8.83966820      11.17926630       8.89606128       1.53063858      -0.64051681      -0.30462447
V       10.35444448       8.42626942       8.42031400       0.08126338       1.35388971       0.60069131
V        5.78334914       9.00448203      10.59181478       0.90177836      -0.95395809       1.48085069
V        7.38125678       6.75987910      10.47891571       0.13761926      -0.19842041       1.14493078
V        1.78164147      12.73783802       8.73609271      -0.81800790       1.57533253       0.52938523
V        3.37925745       6.75912643       9.14991486      -0.65244510      -1.02579514      -0.18866772
V       10.31652921       6.82477724      10.83784068       0.07790573      -1.18941275      -0.55959501
V        4.23955780       6.85869400      11.63359099      -0.76720321       0.06444979      -0.89584435
V       12.00277097       6.54335748       8.53729625       0.14963711      -0.32764835       0.43259149
