12
Lattice="22.1347456275 0.0 0.0 0.0 4.23772834929 0.0 0.0 0.0 2.9965269995" Properties=species:S:1:pos:R:3:force:R:3 config_type=surface_110 energy=-103.93840446 pbc="T T T"
V        0.12701190      -0.06228855       0.02096106      -0.02726977       0.10429767       0.52690979
V        2.13911038       2.05450118       0.06587675      -0.13478493       0.42460635      -0.27138351
V        2.14030247      -0.01382993       1.51123095      -0.00694056      -0.44941814       0.21877493
V        0.08554754       2.09960875       1.63675192       0.29053548      -0.10584193      -0.60623585
V        4.27599892      -0.03968090      -0.00911533      -0.16753382       0.09424391       0.28675970
V        6.36874740       2.15218358      -0.00166477      -0.14685735      -0.08168771      -0.11448529
V        6.36575941       0.01879739       1.53248782      -0.13042068       0.07833290      -0.55703123
V        4.26468676       2.07752589       1.50433315      -0.04762259       0.08789418       0.06508622
V        8.43181251       0.08908090      -0.07657254       0.27596568      -0.41384685       0.24740390
V       10.46391016       2.13840812      -0.06376392      -0.05157778       0.12270896       0.05664720
V       10.44681283       0.01075604       1.47508809       0.03640082       0.19877208      -0.35780420
V        8.45623437       2.18812256       1.39396688       0.11010550      -0.06006143       0.50535833
