12
Lattice="24.1014817174 0.0 0.0 0.0 2.59506856998 0.0 0.0 0.0 4.23772834929" Properties=species:S:1:pos:R:3:force:R:3 config_type=surface_112 energy=-104.0506017 pbc="T T T"
V        0.17318636      -0.19593335      -0.04020430       0.15110242       0.02442379      -0.00661354
V        4.93594533       0.95786097       0.03342985      -0.41681841      -0.14901448      -0.12261541
V        2.46174492       1.73514003      -0.06398861      -0.45483085      -0.27546883       0.35190586
V        3.62439107       0.04565343       2.11951188       0.62298196      -0.05137120      -0.12286054
V        1.22881319       0.77058398       2.09707151       0.09107872       0.36430073      -0.15510469
V        6.12506978       1.79584515       2.12783620      -0.23127872       0.15536754       0.01422440
V        7.33888190       0.08215024      -0.00748542       0.00992959      -0.23119662       0.19291400
V       12.27018830       0.86884983       0.02582640      -0.42069644      -0.33439772      -0.12572379
V        9.73563280       1.71557143       0.03090118       0.19318516       0.03266906      -0.03264766
V       11.00264335      -0.06813435       2.11310490       0.36597630       0.39026200       0.19830880
V        8.55297837       0.88773420       2.17348527       0.15506711      -0.01117170      -0.21039785
V       13.29010220       1.78495179       2.10369807      -0.06569686       0.08559743       0.01861042
