117
Lattice="8.98958876157 0.0 0.0 0.0 11.9861183488 0.0 0.0 0.0 14.9826479359" Properties=species:S:1:pos:R:3:force:R:3 config_type=tri-vacancy energy=-1039.74294585 pbc="T T T"
V        1.35855219       4.49971490       1.59148180       0.21011170      -0.43818076      -0.40834873
V       -0.11489833       2.80355685      -0.04987900       0.23629032       0.77523491       0.96895098
V        2.81692598       3.08816600       3.04850080       0.86668709      -0.76508076      -0.34271223
V        0.13707829       6.00445258       3.02067117      -1.14642083      -0.01694358       0.01339858
V        2.92831973      -0.06402046       0.03469529      -0.26360900       0.30831142       0.11286009
V        4.50560447       4.40882174       1.57763284      -0.61437064       0.06857531      -0.74294083
V        1.66080183       1.45409304       4.47443492      -0.84133274       0.14967006       0.40095178
V        2.82140431       6.10813156       5.97422385       1.14661064      -0.36207565       0.05422312
V        4.43186256       4.54743358       4.48045620       0.29574879      -0.16306611       0.55436016
V        4.55468734       1.59697622       4.65966466      -0.09898501      -0.22483757      -1.12671781
V        1.47761367       4.61312202       7.58566056       0.43905864      -0.25659899      -0.40104519
V        1.46272041       4.37587402       4.56308892      -0.23658254       0.59717559      -0.13846284
V        3.04305341       3.06932127       5.95113598      -0.10853817      -0.14777297       0.98929027
V        2.97979230       5.86670630       3.06210513      -0.10813984       0.89046312      -0.45322851
V        1.42855902       1.53879556      10.44062411       0.50681012       0.28644227       0.31931019
V        2.71913656       2.90142153      14.82073184       0.95328932      -0.10486462       1.48548357
V        1.50208455       4.50042052      10.42613539       0.24809222       0.35271310       0.36278626
V        3.05251812       3.01277765       9.00985414      -0.12510277       0.17865268       0.08653478
V        4.53565444       4.56716269      10.47731631      -0.21800094      -0.27632123       0.43938787
V        0.04449625       3.08787435       9.04622647      -0.39219490      -0.11485391      -0.11187831
V       -0.02808957       6.00364346      11.94970839       0.35283740      -0.29306496       0.39868268
V        1.42434413       1.49621379      13.42210049      -0.00246615      -0.74809063      -0.25204007
V        2.92960866       2.90279513      12.00041890       0.54224476       0.57753714       0.16501664
V        4.51169161       4.38675937      13.54346699      -0.27001194       0.27313361      -0.29391488
V        1.45228665       4.50734499      13.61487566       0.33707926      -0.36755068      -1.05336806
V        4.55349249       1.45380138      10.55286461      -0.23504943       0.49890317      -0.15635619
V       -0.03370837       3.04475631      12.05997316       0.13965651      -0.13023905      -0.23409368
V        3.06437252       6.13864253       8.99132929      -0.54325806      -0.49564802       0.05221602
V        2.97826816       0.14617701       9.04941586       0.14467351      -0.79437837      -0.34987520
V        3.01053848      -0.03911219      11.96777225      -0.24859911      -0.14400215       0.36476536
V        1.50775773       1.47164884       7.55588342       0.11542473       0.75808850      -0.36258821
V        1.44362164       7.61540946       1.58253454       0.34233677      -0.81740783      -0.67499397
V       -0.05096123       6.06776073       6.06203110       0.46679837      -0.28001522      -0.23154609
V        1.32824820      10.55126520       1.59989277       0.51006416      -0.08694444      -0.16464234
V       -0.09974915       8.94151258       6.03698632       0.62415942       0.85788451      -0.49420712
V        3.11209120       9.01612945       2.92389784      -0.62121824       0.21602612       0.42714339
V        4.52141034      10.46950745       1.50314768      -0.07271651       0.47462158       0.12303046
V        2.93796319       8.98737782       0.03546291      -0.19280867       0.08705513      -0.11990106
V        4.62411086      10.55333502       4.42736541      -0.39117242      -0.00417390       0.19390331
V        1.40721169       7.53496886       4.48032448       0.79400350       0.30696580       0.15996011
V        2.99459148       9.11838779       5.87106232       0.09357813      -0.59484902       0.33795547
V        1.65020813      10.58522900       4.34563589      -0.41761448      -0.07285648       0.09673346
V        2.89502392      12.07399146       6.06929428       1.20256857      -0.37999190      -0.62015485
V        3.04800216      12.07860151       2.94416323       0.63533219      -0.05465091      -0.15584095
V        4.37706887       7.44511062       1.39070961       0.77849969       0.11832006       0.62585199
V        0.01142840       9.01551791       3.12709736      -0.02205478      -0.02582607      -0.81571509
V        4.64217471       7.44100861       4.38012656      -0.89177224       0.26832380       0.21024685
V        0.12280596      11.92910432       5.91718158      -0.22913125       0.25257899       1.09488707
V        1.53995277       7.64126335       7.51231379      -0.46929708      -0.11324487      -0.35991291
V        1.42284822       7.43986081      10.50855172       0.25251949       0.56064681      -0.18913573
V       -0.12746212       9.14702652       9.03439087       0.67060988      -0.83199810      -0.38976087
V        1.47985283      10.56885864      10.41522181      -0.20313988      -0.09305881       0.71017996
V        2.87489024       9.15636892       8.93694016       0.59724087      -0.76437446       0.56823231
V        1.47062333       7.46567706      13.49727246       0.06392242      -0.02980561      -0.14205618
V        2.98504210       5.90591990      12.07982458       0.09544511       0.14250966      -0.51883250
V        4.45241019       7.56186708       7.52961557      -0.16802142       0.25875130      -0.82687297
V        1.48842376      10.51805406      13.53161259      -0.28085318      -0.23065364      -0.14791880
V        4.43459095       7.42547559      13.57827754       0.34854852       0.13762446      -0.91410577
V        2.90736755       8.87489271      11.98630651       0.21375345       0.28018566       0.33946716
V        3.01520498       5.98622878      14.99073903      -0.54450087      -0.43793536       0.31251805
V        1.44650998      10.50817538       7.56894208      -0.13521450       0.38675270      -0.78616142
V        7.66116181       4.63622870       4.60779695      -1.03339913      -1.31408249      -0.77332211
V        5.88555103       2.87807024       0.12270154       0.51115019       0.02041209       0.23018490
V        7.43358550       4.46887463       1.55611616       0.23365355       0.19310297       0.09465962
V        5.96774156       3.03262906       3.02369123       0.88944683      -0.28399178       0.17911201
V        5.94592381       5.91284439       2.95723130       0.57102156       0.35234117      -0.00696891
V        8.93821028       0.10826645       0.14921400       0.07824224      -0.11544263      -0.02478313
V        9.04143766       3.01828148       6.13111592      -0.20351056      -0.18888569      -0.69344359
V        7.67701472       1.53698917       4.54321867      -0.52914674       0.09883433       0.50875433
V        4.50490826       4.60312104       7.55757690      -0.15104038      -0.31712794      -0.36911031
V        8.99078361       2.66299750       2.90070649       0.14374464       0.61577744      -0.49727003
V        6.05113634       2.97838106       5.99534538       0.07002070       0.80339027       0.35060509
V        4.42689499       1.46295561       1.54931399      -0.54113358       0.15060604      -0.02616215
V        5.95085374       6.02071004      -0.06956483       0.03821811      -0.77880216       0.63992055
V        7.42868380       4.48962924       7.57438005       0.24336853       0.40011780      -0.56120848
V        7.56453902       1.52320608       7.54599534      -0.10218125       0.29057000      -0.26241174
V        8.98788587       0.09583720      11.85967139      -0.23662265      -0.70595019       1.18944006
V        5.79720750      -0.04194981      14.99111537       0.94721826      -0.09733486       0.82855925
V        7.53503473       1.59632704      10.58400594      -0.40161748      -0.23747435      -0.34086245
V        5.98376382       6.07564485       8.94945314       0.13095364      -0.18175923       0.25623503
V        5.99984253       3.05893455       9.08359605       0.01256126      -0.27790546      -0.02712882
V        7.42753599       4.54958806      10.56631842       0.51568578      -0.07441445      -0.52966757
V        4.43893756       1.40594157      13.57056277      -0.21515311       0.34538626      -0.41635522
V        7.47303432       1.41661054      13.64808680      -0.39699544      -0.14105932      -1.00191033
V        5.98886310       2.98360264      11.99853725      -0.12624344      -0.04574405       0.76846687
V        5.94846404      -0.01779083      12.08537545       0.28553397      -0.28007023      -0.16582805
V        7.57648750       4.41299900      13.59126094      -0.99266787       0.19466524      -0.46253050
V        4.58994007       1.52415632       7.54374677      -0.32626527       0.16662490       0.01956704
V        9.03833294       5.86538914      14.93635932      -0.75243238       1.02250970       0.99376100
V        7.43083829       7.54528972       1.40786086       0.57766627      -0.42056173       0.28059260
V        7.51686738      10.42952236       7.48483228      -0.64489657       0.93642530      -0.47913856
V        5.98601239       8.97430975      -0.01151016      -0.20378145      -0.35749488       0.16587206
V        7.57239491      10.42876970       1.61190712      -0.41082187       0.40314652      -0.30026295
V        6.08954084       8.98655930       2.87829603      -0.47292632       0.28428626       0.54847188
V        6.07304817      12.06110216       5.98222086       0.05757757      -0.32023274       0.22245426
V        7.52950267       7.54253311       4.42913416      -0.49867424      -0.55252884       0.22189673
V        5.94709984       5.98846794       5.96308447       0.30977817       0.25523553       0.11743693
V        7.52507138      10.63499868       4.55024664       0.19341730      -0.49485780      -0.59280418
V        8.88380233       9.06413978      -0.13250870       0.58329923      -0.04906248       0.79129094
V        5.89384911       8.98998391       5.86853150       0.54173257       0.18907200       0.63366333
V        6.10584535      12.18209232       3.09440367      -0.35858056      -0.19291457      -0.77763032
V        4.54605056       7.39883140      10.53047296      -0.53905978       0.87931306      -0.10872819
V        4.32653713      10.34814095      10.58776923       0.64770772       0.82693115      -0.42496419
V        7.53097976       7.50763788      10.35557347      -0.59963022       0.20096349       0.59410261
V        8.99163036       6.16415772       8.84590588      -0.00903144      -0.82918489       1.15042835
V        5.87639680       9.15288787       8.91489662       0.32260816      -0.61419861       0.22370459
V        7.39344988      10.50836355      10.48832397       0.12266865       0.42749161      -0.11186114
V        4.38735209      10.56782373       7.39546324       0.35584508       0.09591188       0.34324992
V        6.12111495       6.00298489      12.00549935      -0.64238674      -0.38147293       0.17244023
V        7.41812773      10.46856663      13.49379140       0.21918775       0.52728980      -0.06578152
V        6.02888581       8.99342733      11.93164455      -0.43512758      -0.50682907       0.33314325
V        7.47734330       7.44496009      13.51759429       0.10811079       0.24586328      -0.44399342
V        4.59054220      10.35218650      13.58382841      -1.24692105       0.28227513      -0.79562797
V        8.81836791       8.93008155      11.97379354       0.83012968       0.36536365      -0.17430625
V        6.01854614      12.05508087       9.04605712      -0.21976769      -0.37439135      -0.11051488
V        8.98192103      12.04708385       8.96708421      -0.26931990      -0.18289576       0.39760949
V        7.51097782       7.52983196       7.41229461      -1.11303152       0.34097277       0.29995544
