117
Lattice="8.535340639 0.0 0.0 0.0 11.380454186 0.0 0.0 0.0 14.225567732" Properties=species:S:1:pos:R:3 REF_energy=-1094.8750554 REF_stress="_JSON [-0.0015125236310026676, -0.00030062228704816715, -0.001466842025710328, -0.00030062228704816715, -0.00461909748521029, 0.0014221590618781299, -0.001466842025710328, 0.0014221590618781299, -0.0019115994830025175]" generation=7 source_path=V-Cr-Ti-W-Zr/Fixed_Engrads/vcrtiwzr_fin_engrads/job_gen_7-2025-02-12/Cr/Cr117_tri-vacancy_idx_3427 date_processed=2025-02-12T16:43:40.980844 structure_id=20196 structure_name=struct_id_20196 pbc="T T T"
Cr       1.49318000       1.41395000       1.36705000
Cr       1.39373000       4.28212000       1.50082000
Cr       2.93771000       2.88650000       2.78519000
Cr       2.79221000       5.67156000       2.87815000
Cr       8.51629000       5.65550000       2.89072000
Cr       0.02289000       2.98438000       2.82852000
Cr       4.16082000       4.22881000       6.91203000
Cr       2.97581000       0.07948000       5.76200000
Cr       4.43991000       1.32387000       1.48039000
Cr       4.30586000       4.13912000       1.37676000
Cr       7.38074000       1.32836000       1.06527000
Cr       7.13764000       4.21643000       1.43286000
Cr       5.84946000       2.76507000       2.85250000
Cr       5.55791000       2.87284000       5.66351000
Cr       8.42369000       5.79410000       5.76424000
Cr       0.00726000       2.97661000       5.61767000
Cr       0.11091000       5.78760000       0.00326000
Cr       4.35103000       1.31467000       4.09913000
Cr       1.44520000       1.41626000       4.15170000
Cr       1.44477000       4.37690000       4.22744000
Cr       2.78861000       2.89045000       5.73549000
Cr       2.79546000       5.64968000       5.68155000
Cr       4.27807000       4.21257000       4.17152000
Cr       8.49048000       0.07222000       5.62514000
Cr       1.31779000       4.33484000       7.07520000
Cr       4.28121000       1.54123000       7.16476000
Cr       5.64985000       0.00429000       5.61610000
Cr       6.97305000       4.35052000       7.01044000
Cr       5.58981000       5.69756000       5.60141000
Cr       7.02572000       4.32731000       4.26617000
Cr       7.18616000       1.33507000       4.01661000
Cr       1.41840000       1.56558000       7.03945000
Cr       7.01941000       1.48811000       7.04491000
Cr       1.24433000       1.46176000       9.79621000
Cr       1.38775000       4.29423000       9.98112000
Cr       2.87445000       2.94308000       8.53399000
Cr       5.77324000       0.02781000      11.40904000
Cr       4.27860000       4.25062000       9.95888000
Cr       4.26771000       1.51101000      10.02936000
Cr       0.06751000       2.85774000       8.62222000
Cr       7.10807000       1.52509000      10.02784000
Cr       5.67819000       2.93927000       8.56305000
Cr       7.11759000       4.28413000       9.82435000
Cr       5.64519000       5.64900000       8.55010000
Cr       2.87098000       5.69346000      11.34740000
Cr       8.44617000       2.83604000      11.54151000
Cr       8.53057000       5.49495000      11.27415000
Cr       2.70270000       2.83558000      11.37054000
Cr       1.21593000       1.35743000      13.22134000
Cr       1.44336000       4.30787000      12.85598000
Cr       4.14736000       1.49186000      12.78765000
Cr       5.64337000       2.79698000      11.52418000
Cr       7.05599000       1.50005000      12.85286000
Cr       0.05955000      11.25104000      11.34910000
Cr       4.26149000       4.25669000      12.87572000
Cr       7.21879000       4.22394000      12.85857000
Cr       2.99432000       0.17829000       8.47244000
Cr       5.86783000      11.31763000       8.65698000
Cr       2.70747000       2.84722000       0.04324000
Cr       5.68585000       2.80076000       0.05235000
Cr       1.41290000       7.17086000       1.46688000
Cr       1.34865000       9.93655000       1.45045000
Cr       2.71032000       8.44403000       2.87616000
Cr       4.25609000       9.79416000       1.50357000
Cr       8.47490000       8.44860000      14.14391000
Cr       5.73823000       5.61393000       2.72590000
Cr       5.59239000      11.34329000      14.15065000
Cr       4.19635000       7.09757000       1.43340000
Cr       8.51994000       8.53759000       2.79418000
Cr       7.08752000       7.14159000       1.48080000
Cr       7.05779000       9.93181000       1.50531000
Cr       5.69421000       8.55176000       2.86837000
Cr       5.75855000       8.59348000      14.16867000
Cr       5.77464000      11.30006000       2.76358000
Cr       4.32629000       9.83730000       4.36618000
Cr       4.19630000       7.00392000       4.19280000
Cr       1.49121000       7.11810000       4.33552000
Cr       1.52300000      10.03445000       4.35837000
Cr       2.72793000       8.42245000       5.78840000
Cr       2.86387000      11.32587000       2.80088000
Cr       7.17239000       9.93771000       4.28094000
Cr       8.43542000       8.50132000       5.65576000
Cr       7.16182000       6.97457000       4.31318000
Cr       7.05979000      10.06992000       7.23568000
Cr       5.64038000       8.41822000       5.58271000
Cr       4.25062000       9.92127000       7.19685000
Cr       5.68239000       5.65338000      14.15547000
Cr       2.85582000      11.30586000       0.15162000
Cr       1.42735000       7.10738000       9.86607000
Cr       1.56772000       9.98979000       9.92708000
Cr       2.85129000       8.50066000       8.53572000
Cr       4.36912000       9.89680000      10.06768000
Cr       2.75897000       0.01662000      11.38992000
Cr       4.20470000       7.06530000      10.00864000
Cr       2.91352000       5.68880000       8.58732000
Cr       5.73988000       8.52348000      11.37036000
Cr       1.31300000       9.95825000       7.04112000
Cr       8.52399000       8.67435000       8.62223000
Cr       8.48773000       5.74525000       8.53706000
Cr       5.82177000       5.65340000      11.35830000
Cr       7.17070000       7.09050000       9.92092000
Cr       5.69936000       8.49876000       8.63095000
Cr       7.17454000       9.91180000      10.07438000
Cr       0.01214000       0.11800000       8.51264000
Cr       7.12929000       7.05446000      12.82901000
Cr       4.25558000       7.00947000      12.80739000
Cr       1.48969000       7.11523000      12.71207000
Cr       1.67587000      10.01962000      12.75254000
Cr       2.91663000       8.53237000      11.45790000
Cr       4.25055000       9.98425000      12.81319000
Cr       7.18100000      10.04249000      12.79604000
Cr       0.15412000       8.39755000      11.33338000
Cr       2.81185000       8.63058000      14.16063000
Cr       2.80666000       5.77159000       0.05145000
Cr       4.18308000       7.08605000       7.05002000
Cr       7.08624000       7.22660000       7.19308000
Cr       1.27900000       7.25524000       7.22187000
117
Lattice="8.535340639 0.0 0.0 0.0 11.380454186 0.0 0.0 0.0 14.225567732" Properties=species:S:1:pos:R:3 loss=0.009863905608654022 final=T energy=-1094.5919189453125 variance=0.00986368115991354 parent_id=20196 REF_energy=-1094.8750554 REF_stress="_JSON [-0.0015125236310026676, -0.00030062228704816715, -0.001466842025710328, -0.00030062228704816715, -0.00461909748521029, 0.0014221590618781299, -0.001466842025710328, 0.0014221590618781299, -0.0019115994830025175]" generation=7 config_type=aa-gradient probability=1.0 source_path=V-Cr-Ti-W-Zr/Fixed_Engrads/vcrtiwzr_fin_engrads/job_gen_7-2025-02-12/Cr/Cr117_tri-vacancy_idx_3427 temperature=1000.0 min_distance=1.5 n_iterations=1 structure_id=22088 learning_rate=0.01 date_processed=2025-02-12T16:43:40.980844 final_variance=0.009863905608654022 structure_name=struct_id_22088 initial_variance=0.009863905608654022 include_probability=F optimization_method=gradient-based parent_structure_name=struct_id_20196 pbc="T T T"
Cr       1.49318000       1.41395000       1.36705000
Cr       1.39373000       4.28212000       1.50082000
Cr       2.93771000       2.88650000       2.78519000
Cr       2.79221000       5.67156000       2.87815000
Cr       8.51629000       5.65550000       2.89072000
Cr       0.02289000       2.98438000       2.82852000
Cr       4.16082000       4.22881000       6.91203000
Cr       2.97581000       0.07948000       5.76200000
Cr       4.43991000       1.32387000       1.48039000
Cr       4.30586000       4.13912000       1.37676000
Cr       7.38074000       1.32836000       1.06527000
Cr       7.13764000       4.21643000       1.43286000
Cr       5.84946000       2.76507000       2.85250000
Cr       5.55791000       2.87284000       5.66351000
Cr       8.42369000       5.79410000       5.76424000
Cr       0.00726000       2.97661000       5.61767000
Cr       0.11091000       5.78760000       0.00326000
Cr       4.35103000       1.31467000       4.09913000
Cr       1.44520000       1.41626000       4.15170000
Cr       1.44477000       4.37690000       4.22744000
Cr       2.78861000       2.89045000       5.73549000
Cr       2.79546000       5.64968000       5.68155000
Cr       4.27807000       4.21257000       4.17152000
Cr       8.49048000       0.07222000       5.62514000
Cr       1.31779000       4.33484000       7.07520000
Cr       4.28121000       1.54123000       7.16476000
Cr       5.64985000       0.00429000       5.61610000
Cr       6.97305000       4.35052000       7.01044000
Cr       5.58981000       5.69756000       5.60141000
Cr       7.02572000       4.32731000       4.26617000
Cr       7.18616000       1.33507000       4.01661000
Cr       1.41840000       1.56558000       7.03945000
Cr       7.01941000       1.48811000       7.04491000
Cr       1.24433000       1.46176000       9.79621000
Cr       1.38775000       4.29423000       9.98112000
Cr       2.87445000       2.94308000       8.53399000
Cr       5.77324000       0.02781000      11.40904000
Cr       4.27860000       4.25062000       9.95888000
Cr       4.26771000       1.51101000      10.02936000
Cr       0.06751000       2.85774000       8.62222000
Cr       7.10807000       1.52509000      10.02784000
Cr       5.67819000       2.93927000       8.56305000
Cr       7.11759000       4.28413000       9.82435000
Cr       5.64519000       5.64900000       8.55010000
Cr       2.87098000       5.69346000      11.34740000
Cr       8.44617000       2.83604000      11.54151000
Cr       8.53057000       5.49495000      11.27415000
Cr       2.70270000       2.83558000      11.37054000
Cr       1.21593000       1.35743000      13.22134000
Cr       1.44336000       4.30787000      12.85598000
Cr       4.14736000       1.49186000      12.78765000
Cr       5.64337000       2.79698000      11.52418000
Cr       7.05599000       1.50005000      12.85286000
Cr       0.05955000      11.25104000      11.34910000
Cr       4.26149000       4.25669000      12.87572000
Cr       7.21879000       4.22394000      12.85857000
Cr       2.99432000       0.17829000       8.47244000
Cr       5.86783000      11.31763000       8.65698000
Cr       2.70747000       2.84722000       0.04324000
Cr       5.68585000       2.80076000       0.05235000
Cr       1.41290000       7.17086000       1.46688000
Cr       1.34865000       9.93655000       1.45045000
Cr       2.71032000       8.44403000       2.87616000
Cr       4.25609000       9.79416000       1.50357000
Cr       8.47490000       8.44860000      14.14391000
Cr       5.73823000       5.61393000       2.72590000
Cr       5.59239000      11.34329000      14.15065000
Cr       4.19635000       7.09757000       1.43340000
Cr       8.51994000       8.53759000       2.79418000
Cr       7.08752000       7.14159000       1.48080000
Cr       7.05779000       9.93181000       1.50531000
Cr       5.69421000       8.55176000       2.86837000
Cr       5.75855000       8.59348000      14.16867000
Cr       5.77464000      11.30006000       2.76358000
Cr       4.32629000       9.83730000       4.36618000
Cr       4.19630000       7.00392000       4.19280000
Cr       1.49121000       7.11810000       4.33552000
Cr       1.52300000      10.03445000       4.35837000
Cr       2.72793000       8.42245000       5.78840000
Cr       2.86387000      11.32587000       2.80088000
Cr       7.17239000       9.93771000       4.28094000
Cr       8.43542000       8.50132000       5.65576000
Cr       7.16182000       6.97457000       4.31318000
Cr       7.05979000      10.06992000       7.23568000
Cr       5.64038000       8.41822000       5.58271000
Cr       4.25062000       9.92127000       7.19685000
Cr       5.68239000       5.65338000      14.15547000
Cr       2.85582000      11.30586000       0.15162000
Cr       1.42735000       7.10738000       9.86607000
Cr       1.56772000       9.98979000       9.92708000
Cr       2.85129000       8.50066000       8.53572000
Cr       4.36912000       9.89680000      10.06768000
Cr       2.75897000       0.01662000      11.38992000
Cr       4.20470000       7.06530000      10.00864000
Cr       2.91352000       5.68880000       8.58732000
Cr       5.73988000       8.52348000      11.37036000
Cr       1.31300000       9.95825000       7.04112000
Cr       8.52399000       8.67435000       8.62223000
Cr       8.48773000       5.74525000       8.53706000
Cr       5.82177000       5.65340000      11.35830000
Cr       7.17070000       7.09050000       9.92092000
Cr       5.69936000       8.49876000       8.63095000
Cr       7.17454000       9.91180000      10.07438000
Cr       0.01214000       0.11800000       8.51264000
Cr       7.12929000       7.05446000      12.82901000
Cr       4.25558000       7.00947000      12.80739000
Cr       1.48969000       7.11523000      12.71207000
Cr       1.67587000      10.01962000      12.75254000
Cr       2.91663000       8.53237000      11.45790000
Cr       4.25055000       9.98425000      12.81319000
Cr       7.18100000      10.04249000      12.79604000
Cr       0.15412000       8.39755000      11.33338000
Cr       2.81185000       8.63058000      14.16063000
Cr       2.80666000       5.77159000       0.05145000
Cr       4.18308000       7.08605000       7.05002000
Cr       7.08624000       7.22660000       7.19308000
Cr       1.27900000       7.25524000       7.22187000
