6
Lattice="0.073424283 3.677059125 3.769856926 3.768117145 -0.01138655 3.686315644 3.689995571 3.748213676 -0.00817716" Properties=species:S:1:pos:R:3:forces:R:3 generation=6 composition=W6 config_type=C15 source_path=V-Cr-Ti-W-Zr/Fixed_Engrads/vcrtiwzr_fin_engrads/job_gen_6-2024-12-23/W/W6_C15_idx_3051 date_processed=2025-02-12T16:53:56.812405 structure_index=3051 structure_id=21702 energy=-74.95083 stress="0.021799687716426826 0.004991497127206115 0.00544050505221303 0.004991497127206115 0.024485421576312647 -0.0006929448261738111 0.00544050505221303 -0.0006929448261738111 0.02586788464015016" calculation_info="_JSON {\"calculation_id\": 21701, \"calculator\": \"vasp\", \"calculation_source_path\": \"\", \"error\": null, \"status\": \"completed\", \"gpu_count\": null, \"parameters\": {}, \"date_started\": null, \"gpu_memory_mb\": null, \"model_version\": null, \"date_completed\": null, \"runtime_seconds\": null}" pbc="T T T"
W        0.94144000       0.92674000       0.93100000       0.00000000       0.00000000       0.00000000
W        2.82550000       0.92104000       2.77416000       0.00000000       0.00000000       0.00000000
W        2.78644000       2.80084000       0.92691000       0.00000000       0.00000000       0.00000000
W        0.97815000       2.76527000       2.81593000       0.00000000       0.00000000       0.00000000
W        3.76577000       3.70694000       3.72400000       0.00296300      -0.01662500      -0.01578900
W        5.64865000       5.56041000       5.58600000      -0.00296300       0.01662500       0.01578900
6
Lattice="0.073424283 3.677059125 3.769856926 3.768117145 -0.01138655 3.686315644 3.689995571 3.748213676 -0.00817716" Properties=species:S:1:pos:R:3:forces:R:3 generation=8 composition=W6 config_type=C15_aa source_path=V-Cr-Ti-W-Zr/Fixed_Engrads/vcrtiwzr_fin_engrads/job_gen_6-2024-12-23/W/W6_C15_idx_3051 date_processed=2025-02-12T16:53:56.812405 structure_index=3051 structure_id=21702 energy=-74.91142578125 stress="0.021799687716426826 0.004991497127206115 0.00544050505221303 0.004991497127206115 0.024485421576312647 -0.0006929448261738111 0.00544050505221303 -0.0006929448261738111 0.02586788464015016" calculation_info="_JSON {\"calculation_id\": 21701, \"calculator\": \"vasp\", \"calculation_source_path\": \"\", \"error\": null, \"status\": \"completed\", \"gpu_count\": null, \"parameters\": {}, \"date_started\": null, \"gpu_memory_mb\": null, \"model_version\": null, \"date_completed\": null, \"runtime_seconds\": null}" parent_id=21702 step=0 variance=0.2133607715368271 loss=0.2133607715368271 pbc="T T T"
W        0.94144000       0.92674000       0.93100000      -0.00000094      -0.00005550       0.00004945
W        2.82550000       0.92104000       2.77416000      -0.00010264       0.00008248      -0.00004137
W        2.78644000       2.80084000       0.92691000       0.00000333       0.00000277       0.00007725
W        0.97815000       2.76527000       2.81593000       0.00012405      -0.00010345      -0.00003606
W        3.76577000       3.70694000       3.72400000       0.00159136      -0.01042236      -0.00939348
W        5.64865000       5.56041000       5.58600000      -0.00161522       0.01049609       0.00934419
6
Lattice="0.073424283 3.677059125 3.769856926 3.768117145 -0.01138655 3.686315644 3.689995571 3.748213676 -0.00817716" Properties=species:S:1:pos:R:3:forces:R:3 generation=8 composition=W6 config_type=C15_aa source_path=V-Cr-Ti-W-Zr/Fixed_Engrads/vcrtiwzr_fin_engrads/job_gen_6-2024-12-23/W/W6_C15_idx_3051 date_processed=2025-02-12T16:53:56.812405 structure_index=3051 structure_id=21702 energy=-74.90453338623047 stress="0.021799687716426826 0.004991497127206115 0.00544050505221303 0.004991497127206115 0.024485421576312647 -0.0006929448261738111 0.00544050505221303 -0.0006929448261738111 0.02586788464015016" calculation_info="_JSON {\"calculation_id\": 21701, \"calculator\": \"vasp\", \"calculation_source_path\": \"\", \"error\": null, \"status\": \"completed\", \"gpu_count\": null, \"parameters\": {}, \"date_started\": null, \"gpu_memory_mb\": null, \"model_version\": null, \"date_completed\": null, \"runtime_seconds\": null}" parent_id=21702 step=1 variance=0.006136984098702669 loss=0.006136984098702669 pbc="T T T"
W        0.95144000       0.93674000       0.94100000       0.00672677       0.00602647      -0.04969316
W        2.83550000       0.93104000       2.78416000      -0.02879185      -0.08577136      -0.08246769
W        2.79644000       2.81084000       0.93691000      -0.05850504      -0.05400259      -0.11121838
W        0.98815000       2.77527000       2.82593000      -0.08429583      -0.02689516      -0.08271880
W        3.77577000       3.69694000       3.71400000      -0.02602155       0.18288687       0.15272343
W        5.63865000       5.57041000       5.57600000       0.19088738      -0.02224427       0.17337449
6
Lattice="0.073424283 3.677059125 3.769856926 3.768117145 -0.01138655 3.686315644 3.689995571 3.748213676 -0.00817716" Properties=species:S:1:pos:R:3:forces:R:3 generation=8 composition=W6 config_type=C15_aa source_path=V-Cr-Ti-W-Zr/Fixed_Engrads/vcrtiwzr_fin_engrads/job_gen_6-2024-12-23/W/W6_C15_idx_3051 date_processed=2025-02-12T16:53:56.812405 structure_index=3051 structure_id=21702 energy=-74.89217834472656 stress="0.021799687716426826 0.004991497127206115 0.00544050505221303 0.004991497127206115 0.024485421576312647 -0.0006929448261738111 0.00544050505221303 -0.0006929448261738111 0.02586788464015016" calculation_info="_JSON {\"calculation_id\": 21701, \"calculator\": \"vasp\", \"calculation_source_path\": \"\", \"error\": null, \"status\": \"completed\", \"gpu_count\": null, \"parameters\": {}, \"date_started\": null, \"gpu_memory_mb\": null, \"model_version\": null, \"date_completed\": null, \"runtime_seconds\": null}" parent_id=21702 step=2 variance=0.008191238157451153 loss=0.008191238157451153 pbc="T T T"
W        0.95773860       0.94295521       0.94758704       0.02171173       0.02192825      -0.06946546
W        2.84222458       0.93772221       2.79116824      -0.05613253      -0.14154215      -0.14302984
W        2.80317578       2.81763763       0.94360608      -0.10685030      -0.09675092      -0.17851432
W        0.99483555       2.78200645       2.83289547      -0.13693352      -0.05096697      -0.14423344
W        3.78231244       3.69008200       3.70846893      -0.04067550       0.31211320       0.25076145
W        5.63187967       5.57682396       5.56945625       0.31888020      -0.04478138       0.28448153
6
Lattice="0.073424283 3.677059125 3.769856926 3.768117145 -0.01138655 3.686315644 3.689995571 3.748213676 -0.00817716" Properties=species:S:1:pos:R:3:forces:R:3 generation=8 composition=W6 config_type=C15_aa source_path=V-Cr-Ti-W-Zr/Fixed_Engrads/vcrtiwzr_fin_engrads/job_gen_6-2024-12-23/W/W6_C15_idx_3051 date_processed=2025-02-12T16:53:56.812405 structure_index=3051 structure_id=21702 energy=-74.87877349853515 stress="0.021799687716426826 0.004991497127206115 0.00544050505221303 0.004991497127206115 0.024485421576312647 -0.0006929448261738111 0.00544050505221303 -0.0006929448261738111 0.02586788464015016" calculation_info="_JSON {\"calculation_id\": 21701, \"calculator\": \"vasp\", \"calculation_source_path\": \"\", \"error\": null, \"status\": \"completed\", \"gpu_count\": null, \"parameters\": {}, \"date_started\": null, \"gpu_memory_mb\": null, \"model_version\": null, \"date_completed\": null, \"runtime_seconds\": null}" parent_id=21702 step=3 variance=0.009909489192068577 loss=0.009909489192068577 pbc="T T T"
W        0.96251373       0.94765235       0.95260491       0.03518042       0.03586312      -0.07644913
W        2.84743786       0.94287428       2.79676794      -0.08211871      -0.18377011      -0.19028546
W        2.80837359       2.82286785       0.94877780      -0.14574468      -0.12995698      -0.22479780
W        0.99999092       2.78723619       2.83843809      -0.17489652      -0.07319666      -0.19248411
W        3.78722304       3.68461689       3.70556167      -0.04959172       0.41211182       0.31334361
W        5.62657608       5.58146486       5.56455473       0.41717130      -0.06105107       0.37067285
6
Lattice="0.073424283 3.677059125 3.769856926 3.768117145 -0.01138655 3.686315644 3.689995571 3.748213676 -0.00817716" Properties=species:S:1:pos:R:3:forces:R:3 generation=8 composition=W6 config_type=C15_aa source_path=V-Cr-Ti-W-Zr/Fixed_Engrads/vcrtiwzr_fin_engrads/job_gen_6-2024-12-23/W/W6_C15_idx_3051 date_processed=2025-02-12T16:53:56.812405 structure_index=3051 structure_id=21702 energy=-74.86559753417968 stress="0.021799687716426826 0.004991497127206115 0.00544050505221303 0.004991497127206115 0.024485421576312647 -0.0006929448261738111 0.00544050505221303 -0.0006929448261738111 0.02586788464015016" calculation_info="_JSON {\"calculation_id\": 21701, \"calculator\": \"vasp\", \"calculation_source_path\": \"\", \"error\": null, \"status\": \"completed\", \"gpu_count\": null, \"parameters\": {}, \"date_started\": null, \"gpu_memory_mb\": null, \"model_version\": null, \"date_completed\": null, \"runtime_seconds\": null}" parent_id=21702 step=4 variance=0.01173767726868391 loss=0.01173767726868391 pbc="T T T"
W        0.96649123       0.95158488       0.95666691       0.04382860       0.04394480      -0.07728611
W        2.85171834       0.94708301       2.80146633      -0.10636594      -0.21821582      -0.22739723
W        2.81260154       2.82707075       0.95301011      -0.17556104      -0.15427339      -0.25845581
W        1.00420183       2.79153456       2.84307690      -0.20407255      -0.09346431      -0.23042607
W        3.79110586       3.67997579       3.70441825      -0.05512702       0.49450198       0.35248813
W        5.62216216       5.58493884       5.56068059       0.49729794      -0.07249330       0.44107714
6
Lattice="0.073424283 3.677059125 3.769856926 3.768117145 -0.01138655 3.686315644 3.689995571 3.748213676 -0.00817716" Properties=species:S:1:pos:R:3:forces:R:3 generation=8 composition=W6 config_type=C15_aa source_path=V-Cr-Ti-W-Zr/Fixed_Engrads/vcrtiwzr_fin_engrads/job_gen_6-2024-12-23/W/W6_C15_idx_3051 date_processed=2025-02-12T16:53:56.812405 structure_index=3051 structure_id=21702 energy=-74.85317993164062 stress="0.021799687716426826 0.004991497127206115 0.00544050505221303 0.004991497127206115 0.024485421576312647 -0.0006929448261738111 0.00544050505221303 -0.0006929448261738111 0.02586788464015016" calculation_info="_JSON {\"calculation_id\": 21701, \"calculator\": \"vasp\", \"calculation_source_path\": \"\", \"error\": null, \"status\": \"completed\", \"gpu_count\": null, \"parameters\": {}, \"date_started\": null, \"gpu_memory_mb\": null, \"model_version\": null, \"date_completed\": null, \"runtime_seconds\": null}" parent_id=21702 step=5 variance=0.014590822160243988 loss=0.014590822160243988 pbc="T T T"
W        0.97001036       0.95509929       0.96006478       0.04630336       0.04462899      -0.07482935
W        2.85534379       0.95062952       2.80551232      -0.12881950      -0.24757262      -0.25595793
W        2.81613285       2.83050744       0.95658338      -0.19668765      -0.17020963      -0.28336444
W        1.00774891       2.79517843       2.84706620      -0.22723588      -0.11184184      -0.25959939
W        3.79425064       3.67588789       3.70467996      -0.05842622       0.56490362       0.37359032
W        5.61836203       5.58754665       5.55754843       0.56486589      -0.07990858       0.50016081
6
Lattice="0.073424283 3.677059125 3.769856926 3.768117145 -0.01138655 3.686315644 3.689995571 3.748213676 -0.00817716" Properties=species:S:1:pos:R:3:forces:R:3 generation=8 composition=W6 config_type=C15_aa source_path=V-Cr-Ti-W-Zr/Fixed_Engrads/vcrtiwzr_fin_engrads/job_gen_6-2024-12-23/W/W6_C15_idx_3051 date_processed=2025-02-12T16:53:56.812405 structure_index=3051 structure_id=21702 energy=-74.84177093505859 stress="0.021799687716426826 0.004991497127206115 0.00544050505221303 0.004991497127206115 0.024485421576312647 -0.0006929448261738111 0.00544050505221303 -0.0006929448261738111 0.02586788464015016" calculation_info="_JSON {\"calculation_id\": 21701, \"calculator\": \"vasp\", \"calculation_source_path\": \"\", \"error\": null, \"status\": \"completed\", \"gpu_count\": null, \"parameters\": {}, \"date_started\": null, \"gpu_memory_mb\": null, \"model_version\": null, \"date_completed\": null, \"runtime_seconds\": null}" parent_id=21702 step=6 variance=0.02012871764600277 loss=0.02012871764600277 pbc="T T T"
W        0.97327248       0.95839679       0.96295832       0.04166668       0.03681921      -0.07013597
W        2.85847551       0.95367493       2.80906329      -0.14981227      -0.27350411      -0.27685425
W        2.81911958       2.83331544       0.95965862      -0.20921440      -0.17792790      -0.30153984
W        1.01079318       2.79832941       2.85056807      -0.24593318      -0.12882729      -0.28097662
W        3.79679420       3.67217095       3.70622161      -0.05985536       0.62676132       0.37905607
W        5.61500754       5.58940875       5.55501596       0.62314862      -0.08332130       0.55045062
6
Lattice="0.073424283 3.677059125 3.769856926 3.768117145 -0.01138655 3.686315644 3.689995571 3.748213676 -0.00817716" Properties=species:S:1:pos:R:3:forces:R:3 generation=8 composition=W6 config_type=C15_aa source_path=V-Cr-Ti-W-Zr/Fixed_Engrads/vcrtiwzr_fin_engrads/job_gen_6-2024-12-23/W/W6_C15_idx_3051 date_processed=2025-02-12T16:53:56.812405 structure_index=3051 structure_id=21702 energy=-74.83157806396484 stress="0.021799687716426826 0.004991497127206115 0.00544050505221303 0.004991497127206115 0.024485421576312647 -0.0006929448261738111 0.00544050505221303 -0.0006929448261738111 0.02586788464015016" calculation_info="_JSON {\"calculation_id\": 21701, \"calculator\": \"vasp\", \"calculation_source_path\": \"\", \"error\": null, \"status\": \"completed\", \"gpu_count\": null, \"parameters\": {}, \"date_started\": null, \"gpu_memory_mb\": null, \"model_version\": null, \"date_completed\": null, \"runtime_seconds\": null}" parent_id=21702 step=7 variance=0.032876983284950256 loss=0.032876983284950256 pbc="T T T"
W        0.97642114       0.96161376       0.96542946       0.02881859       0.01913009      -0.06205506
W        2.86122072       0.95632376       2.81225847      -0.17038003      -0.29697767      -0.29026905
W        2.82164791       2.83554999       0.96233862      -0.21254763      -0.17691661      -0.31310099
W        1.01343852       2.80109732       2.85372653      -0.26082438      -0.14562896      -0.29491991
W        3.79879320       3.66867353       3.70937849      -0.05955143       0.68255442       0.36673045
W        5.61196722       5.59053278       5.55305887       0.67448473      -0.08216105       0.59361458
6
Lattice="0.073424283 3.677059125 3.769856926 3.768117145 -0.01138655 3.686315644 3.689995571 3.748213676 -0.00817716" Properties=species:S:1:pos:R:3:forces:R:3 generation=8 composition=W6 config_type=C15_aa source_path=V-Cr-Ti-W-Zr/Fixed_Engrads/vcrtiwzr_fin_engrads/job_gen_6-2024-12-23/W/W6_C15_idx_3051 date_processed=2025-02-12T16:53:56.812405 structure_index=3051 structure_id=21702 energy=-74.82259521484374 stress="0.021799687716426826 0.004991497127206115 0.00544050505221303 0.004991497127206115 0.024485421576312647 -0.0006929448261738111 0.00544050505221303 -0.0006929448261738111 0.02586788464015016" calculation_info="_JSON {\"calculation_id\": 21701, \"calculator\": \"vasp\", \"calculation_source_path\": \"\", \"error\": null, \"status\": \"completed\", \"gpu_count\": null, \"parameters\": {}, \"date_started\": null, \"gpu_memory_mb\": null, \"model_version\": null, \"date_completed\": null, \"runtime_seconds\": null}" parent_id=21702 step=8 variance=0.06870218366384506 loss=0.06870218366384506 pbc="T T T"
W        0.97946465       0.96465064       0.96745180       0.01007201      -0.00538117      -0.04384027
W        2.86366619       0.95865063       2.81534010      -0.19413942      -0.31842604      -0.29860196
W        2.82376023       2.83720550       0.96469264      -0.20857160      -0.16882953      -0.31625575
W        1.01576083       2.80358082       2.85680216      -0.27191395      -0.16675681      -0.30530107
W        3.80014258       3.66519600       3.71459393      -0.05630646       0.73441136       0.33405888
W        5.60908789       5.59076794       5.55184762       0.72085941      -0.07501768       0.62994015
6
Lattice="0.073424283 3.677059125 3.769856926 3.768117145 -0.01138655 3.686315644 3.689995571 3.748213676 -0.00817716" Properties=species:S:1:pos:R:3:forces:R:3 generation=8 composition=W6 config_type=C15_aa source_path=V-Cr-Ti-W-Zr/Fixed_Engrads/vcrtiwzr_fin_engrads/job_gen_6-2024-12-23/W/W6_C15_idx_3051 date_processed=2025-02-12T16:53:56.812405 structure_index=3051 structure_id=21702 energy=-74.81408233642578 stress="0.021799687716426826 0.004991497127206115 0.00544050505221303 0.004991497127206115 0.024485421576312647 -0.0006929448261738111 0.00544050505221303 -0.0006929448261738111 0.02586788464015016" calculation_info="_JSON {\"calculation_id\": 21701, \"calculator\": \"vasp\", \"calculation_source_path\": \"\", \"error\": null, \"status\": \"completed\", \"gpu_count\": null, \"parameters\": {}, \"date_started\": null, \"gpu_memory_mb\": null, \"model_version\": null, \"date_completed\": null, \"runtime_seconds\": null}" parent_id=21702 step=9 variance=0.14143411815166473 loss=0.14143411815166473 pbc="T T T"
W        0.98177233       0.96581501       0.96866690       0.00967502       0.00225180       0.01377597
W        2.86591726       0.96071800       2.81893630      -0.23355588      -0.33561105      -0.31658736
W        2.82551008       2.83831731       0.96676784      -0.22058046      -0.17221789      -0.30557314
W        1.01785211       2.80595518       2.86066039      -0.27829012      -0.21208887      -0.34054571
W        3.80024603       3.66157974       3.72120536      -0.04326842       0.78152442       0.29267117
W        5.60600025       5.59003988       5.55207777       0.76601994      -0.06385834       0.65625906
6
Lattice="0.073424283 3.677059125 3.769856926 3.768117145 -0.01138655 3.686315644 3.689995571 3.748213676 -0.00817716" Properties=species:S:1:pos:R:3:forces:R:3 generation=8 composition=W6 config_type=C15_aa source_path=V-Cr-Ti-W-Zr/Fixed_Engrads/vcrtiwzr_fin_engrads/job_gen_6-2024-12-23/W/W6_C15_idx_3051 date_processed=2025-02-12T16:53:56.812405 structure_index=3051 structure_id=21702 energy=-74.80485382080079 stress="0.021799687716426826 0.004991497127206115 0.00544050505221303 0.004991497127206115 0.024485421576312647 -0.0006929448261738111 0.00544050505221303 -0.0006929448261738111 0.02586788464015016" calculation_info="_JSON {\"calculation_id\": 21701, \"calculator\": \"vasp\", \"calculation_source_path\": \"\", \"error\": null, \"status\": \"completed\", \"gpu_count\": null, \"parameters\": {}, \"date_started\": null, \"gpu_memory_mb\": null, \"model_version\": null, \"date_completed\": null, \"runtime_seconds\": null}" parent_id=21702 step=10 variance=0.02519175410270691 loss=0.02519175410270691 pbc="T T T"
W        0.98460099       0.96444865       0.97021762       0.00092253       0.07174700       0.03280471
W        2.86777766       0.96238348       2.82013048      -0.23888180      -0.34462479      -0.30860099
W        2.82752754       2.84024552       0.96863143      -0.27144465      -0.18152583      -0.31270370
W        1.01970952       2.80805374       2.86419625      -0.28430974      -0.24789827      -0.40925622
W        3.79985460       3.66113740       3.72116078      -0.02077368       0.79547828       0.30914265
W        5.60292978       5.59314512       5.55046434       0.81448728      -0.09317617       0.68861359
6
Lattice="0.073424283 3.677059125 3.769856926 3.768117145 -0.01138655 3.686315644 3.689995571 3.748213676 -0.00817716" Properties=species:S:1:pos:R:3:forces:R:3 generation=8 composition=W6 config_type=C15_aa source_path=V-Cr-Ti-W-Zr/Fixed_Engrads/vcrtiwzr_fin_engrads/job_gen_6-2024-12-23/W/W6_C15_idx_3051 date_processed=2025-02-12T16:53:56.812405 structure_index=3051 structure_id=21702 energy=-74.79624786376954 stress="0.021799687716426826 0.004991497127206115 0.00544050505221303 0.004991497127206115 0.024485421576312647 -0.0006929448261738111 0.00544050505221303 -0.0006929448261738111 0.02586788464015016" calculation_info="_JSON {\"calculation_id\": 21701, \"calculator\": \"vasp\", \"calculation_source_path\": \"\", \"error\": null, \"status\": \"completed\", \"gpu_count\": null, \"parameters\": {}, \"date_started\": null, \"gpu_memory_mb\": null, \"model_version\": null, \"date_completed\": null, \"runtime_seconds\": null}" parent_id=21702 step=11 variance=0.02180875837802887 loss=0.02180875837802887 pbc="T T T"
W        0.98824116       0.96483926       0.97181754      -0.03923905       0.09315853       0.02668578
W        2.86941715       0.96384761       2.82083772      -0.23479974      -0.35867199      -0.28585926
W        2.82916332       2.84152215       0.97029536      -0.29109961      -0.16425052      -0.32680184
W        1.02132175       2.80987305       2.86687710      -0.29196686      -0.26744953      -0.44963941
W        3.79953859       3.66048814       3.72094938      -0.00073633       0.81122434       0.32161865
W        5.60018405       5.59546959       5.54892020       0.85784149      -0.11401071       0.71399599
6
Lattice="0.073424283 3.677059125 3.769856926 3.768117145 -0.01138655 3.686315644 3.689995571 3.748213676 -0.00817716" Properties=species:S:1:pos:R:3:forces:R:3 generation=8 composition=W6 config_type=C15_aa source_path=V-Cr-Ti-W-Zr/Fixed_Engrads/vcrtiwzr_fin_engrads/job_gen_6-2024-12-23/W/W6_C15_idx_3051 date_processed=2025-02-12T16:53:56.812405 structure_index=3051 structure_id=21702 energy=-74.78812255859376 stress="0.021799687716426826 0.004991497127206115 0.00544050505221303 0.004991497127206115 0.024485421576312647 -0.0006929448261738111 0.00544050505221303 -0.0006929448261738111 0.02586788464015016" calculation_info="_JSON {\"calculation_id\": 21701, \"calculator\": \"vasp\", \"calculation_source_path\": \"\", \"error\": null, \"status\": \"completed\", \"gpu_count\": null, \"parameters\": {}, \"date_started\": null, \"gpu_memory_mb\": null, \"model_version\": null, \"date_completed\": null, \"runtime_seconds\": null}" parent_id=21702 step=12 variance=0.01855706050992012 loss=0.01855706050992012 pbc="T T T"
W        0.99173928       0.96588996       0.97332919      -0.08313483       0.09534283       0.01357632
W        2.87088994       0.96515439       2.82146500      -0.22978917      -0.37336344      -0.26353833
W        2.83057357       2.84253455       0.97178786      -0.29855874      -0.14208271      -0.34180763
W        1.02273741       2.81147833       2.86903961      -0.29947329      -0.27995306      -0.47597176
W        3.79939863       3.65965409       3.72066950       0.01552218       0.82812387       0.33227715
W        5.59778636       5.59713875       5.54748673       0.89543402      -0.12806758       0.73546398
6
Lattice="0.073424283 3.677059125 3.769856926 3.768117145 -0.01138655 3.686315644 3.689995571 3.748213676 -0.00817716" Properties=species:S:1:pos:R:3:forces:R:3 generation=8 composition=W6 config_type=C15_aa source_path=V-Cr-Ti-W-Zr/Fixed_Engrads/vcrtiwzr_fin_engrads/job_gen_6-2024-12-23/W/W6_C15_idx_3051 date_processed=2025-02-12T16:53:56.812405 structure_index=3051 structure_id=21702 energy=-74.78042602539062 stress="0.021799687716426826 0.004991497127206115 0.00544050505221303 0.004991497127206115 0.024485421576312647 -0.0006929448261738111 0.00544050505221303 -0.0006929448261738111 0.02586788464015016" calculation_info="_JSON {\"calculation_id\": 21701, \"calculator\": \"vasp\", \"calculation_source_path\": \"\", \"error\": null, \"status\": \"completed\", \"gpu_count\": null, \"parameters\": {}, \"date_started\": null, \"gpu_memory_mb\": null, \"model_version\": null, \"date_completed\": null, \"runtime_seconds\": null}" parent_id=21702 step=13 variance=0.014596532098948956 loss=0.014596532098948956 pbc="T T T"
W        0.99476124       0.96712260       0.97470644      -0.12060872       0.09130649       0.00074488
W        2.87222577       0.96632845       2.82214372      -0.22686203      -0.38687095      -0.24673197
W        2.83183716       2.84344925       0.97313098      -0.30240479      -0.12315347      -0.35531712
W        1.02399021       2.81291167       2.87087427      -0.30605966      -0.28948775      -0.49541074
W        3.79942004       3.65870818       3.72035145       0.02820568       0.84541190       0.34218869
W        5.59569995       5.59831955       5.54616460       0.92772943      -0.13720629       0.75452626
6
Lattice="0.073424283 3.677059125 3.769856926 3.768117145 -0.01138655 3.686315644 3.689995571 3.748213676 -0.00817716" Properties=species:S:1:pos:R:3:forces:R:3 generation=8 composition=W6 config_type=C15_aa source_path=V-Cr-Ti-W-Zr/Fixed_Engrads/vcrtiwzr_fin_engrads/job_gen_6-2024-12-23/W/W6_C15_idx_3051 date_processed=2025-02-12T16:53:56.812405 structure_index=3051 structure_id=21702 energy=-74.77316436767578 stress="0.021799687716426826 0.004991497127206115 0.00544050505221303 0.004991497127206115 0.024485421576312647 -0.0006929448261738111 0.00544050505221303 -0.0006929448261738111 0.02586788464015016" calculation_info="_JSON {\"calculation_id\": 21701, \"calculator\": \"vasp\", \"calculation_source_path\": \"\", \"error\": null, \"status\": \"completed\", \"gpu_count\": null, \"parameters\": {}, \"date_started\": null, \"gpu_memory_mb\": null, \"model_version\": null, \"date_completed\": null, \"runtime_seconds\": null}" parent_id=21702 step=14 variance=0.011744216084480286 loss=0.011744216084480286 pbc="T T T"
W        0.99727014       0.96830551       0.97594116      -0.14949009       0.08709443      -0.00932251
W        2.87344178       0.96738583       2.82288194      -0.22644398      -0.39862818      -0.23581818
W        2.83299228       2.84432583       0.97434275      -0.30636343      -0.10950758      -0.36665496
W        1.02510646       2.81420257       2.87249680      -0.31153506      -0.29798529      -0.51183200
W        3.79954332       3.65772546       3.72001658       0.03818610       0.86231601       0.35172272
W        5.59386805       5.59917925       5.54494874       0.95564669      -0.14328949       0.77190495
6
Lattice="0.073424283 3.677059125 3.769856926 3.768117145 -0.01138655 3.686315644 3.689995571 3.748213676 -0.00817716" Properties=species:S:1:pos:R:3:forces:R:3 generation=8 composition=W6 config_type=C15_aa source_path=V-Cr-Ti-W-Zr/Fixed_Engrads/vcrtiwzr_fin_engrads/job_gen_6-2024-12-23/W/W6_C15_idx_3051 date_processed=2025-02-12T16:53:56.812405 structure_index=3051 structure_id=21702 energy=-74.76634674072265 stress="0.021799687716426826 0.004991497127206115 0.00544050505221303 0.004991497127206115 0.024485421576312647 -0.0006929448261738111 0.00544050505221303 -0.0006929448261738111 0.02586788464015016" calculation_info="_JSON {\"calculation_id\": 21701, \"calculator\": \"vasp\", \"calculation_source_path\": \"\", \"error\": null, \"status\": \"completed\", \"gpu_count\": null, \"parameters\": {}, \"date_started\": null, \"gpu_memory_mb\": null, \"model_version\": null, \"date_completed\": null, \"runtime_seconds\": null}" parent_id=21702 step=15 variance=0.010063759982585907 loss=0.010063759982585907 pbc="T T T"
W        0.99933422       0.96936434       0.97704342      -0.17067349       0.08453309      -0.01637507
W        2.87455028       0.96833985       2.82365697      -0.22808596      -0.40863809      -0.22973859
W        2.83405616       2.84517602       0.97543823      -0.31142181      -0.10073545      -0.37588233
W        1.02610597       2.81537080       2.87396354      -0.31596562      -0.30611590      -0.52680582
W        3.79972901       3.65675463       3.71968100       0.04613846       0.87839204       0.36089426
W        5.59224531       5.59982156       5.54383165       0.98000842      -0.14743562       0.78790766
6
Lattice="0.073424283 3.677059125 3.769856926 3.768117145 -0.01138655 3.686315644 3.689995571 3.748213676 -0.00817716" Properties=species:S:1:pos:R:3:forces:R:3 generation=8 composition=W6 config_type=C15_aa source_path=V-Cr-Ti-W-Zr/Fixed_Engrads/vcrtiwzr_fin_engrads/job_gen_6-2024-12-23/W/W6_C15_idx_3051 date_processed=2025-02-12T16:53:56.812405 structure_index=3051 structure_id=21702 energy=-74.75998229980469 stress="0.021799687716426826 0.004991497127206115 0.00544050505221303 0.004991497127206115 0.024485421576312647 -0.0006929448261738111 0.00544050505221303 -0.0006929448261738111 0.02586788464015016" calculation_info="_JSON {\"calculation_id\": 21701, \"calculator\": \"vasp\", \"calculation_source_path\": \"\", \"error\": null, \"status\": \"completed\", \"gpu_count\": null, \"parameters\": {}, \"date_started\": null, \"gpu_memory_mb\": null, \"model_version\": null, \"date_completed\": null, \"runtime_seconds\": null}" parent_id=21702 step=16 variance=0.009168294258415699 loss=0.009168294258415699 pbc="T T T"
W        1.00102395       0.97028588       0.97802665      -0.18544690       0.08397484      -0.02074232
W        2.87556165       0.96920171       2.82444936      -0.23131871      -0.41708642      -0.22746992
W        2.83503862       2.84599969       0.97643006      -0.31767878      -0.09603925      -0.38325876
W        1.02700352       2.81643097       2.87530307      -0.31948435      -0.31406438      -0.54090965
W        3.79994977       3.65581650       3.71935284       0.05255688       0.89348948       0.36967662
W        5.59079968       5.60030875       5.54280602       1.00137198      -0.15027407       0.80270404
6