6
Lattice="0.161711039 3.503742224 3.347083291 2.998433541 -0.242363486 3.486805693 2.997909676 3.434923957 0.296931884" Properties=species:S:1:pos:R:3:forces:R:3 generation=7 composition=Cr6 config_type=C15 source_path=V-Cr-Ti-W-Zr/Fixed_Engrads/vcrtiwzr_fin_engrads/job_gen_7-2025-02-12/Cr/Cr6_C15_idx_2937 date_processed=2025-02-12T16:44:48.146372 structure_index=2937 structure_id=20656 energy=-54.44691 stress="-0.17977497378296534 -0.011725380183502925 0.08393265652126036 -0.011725380183502925 -0.010152257740397058 -0.004526891670893617 0.08393265652126036 -0.004526891670893617 -0.11945966974878977" calculation_info="_JSON {\"calculation_id\": 20655, \"calculator\": \"vasp\", \"calculation_source_path\": \"\", \"error\": null, \"status\": \"completed\", \"gpu_count\": null, \"parameters\": {}, \"date_started\": null, \"gpu_memory_mb\": null, \"model_version\": null, \"date_completed\": null, \"runtime_seconds\": null}" pbc="T T T"
Cr       0.76976000       0.83704000       0.89135000       0.00000000       0.00000000       0.00000000
Cr       2.26897000       0.71586000       2.63476000       0.00000000       0.00000000       0.00000000
Cr       2.26871000       2.55450000       1.03982000       0.00000000       0.00000000       0.00000000
Cr       0.85061000       2.58891000       2.56489000       0.00000000       0.00000000       0.00000000
Cr       3.07903000       3.34815000       3.56541000      -0.03048500      -0.22928200       0.05174100
Cr       4.61854000       5.02223000       5.34812000       0.03048500       0.22928200      -0.05174100
6
Lattice="0.161711039 3.503742224 3.347083291 2.998433541 -0.242363486 3.486805693 2.997909676 3.434923957 0.296931884" Properties=species:S:1:pos:R:3:forces:R:3 generation=8 composition=Cr6 config_type=C15_aa source_path=V-Cr-Ti-W-Zr/Fixed_Engrads/vcrtiwzr_fin_engrads/job_gen_7-2025-02-12/Cr/Cr6_C15_idx_2937 date_processed=2025-02-12T16:44:48.146372 structure_index=2937 structure_id=20656 energy=-54.35357818603516 stress="-0.17977497378296534 -0.011725380183502925 0.08393265652126036 -0.011725380183502925 -0.010152257740397058 -0.004526891670893617 0.08393265652126036 -0.004526891670893617 -0.11945966974878977" calculation_info="_JSON {\"calculation_id\": 20655, \"calculator\": \"vasp\", \"calculation_source_path\": \"\", \"error\": null, \"status\": \"completed\", \"gpu_count\": null, \"parameters\": {}, \"date_started\": null, \"gpu_memory_mb\": null, \"model_version\": null, \"date_completed\": null, \"runtime_seconds\": null}" parent_id=20656 step=0 variance=0.20477013289928436 loss=0.20477013289928436 pbc="T T T"
Cr       0.76976000       0.83704000       0.89135000      -0.00003436      -0.00003979       0.00000281
Cr       2.26897000       0.71586000       2.63476000       0.00002558      -0.00002447      -0.00001566
Cr       2.26871000       2.55450000       1.03982000       0.00008202       0.00002957      -0.00002623
Cr       0.85061000       2.58891000       2.56489000      -0.00002637       0.00002454       0.00007549
Cr       3.07903000       3.34815000       3.56541000       0.03186081      -0.01439566       0.02129339
Cr       4.61854000       5.02223000       5.34812000      -0.03190773       0.01440588      -0.02132988
6
Lattice="0.161711039 3.503742224 3.347083291 2.998433541 -0.242363486 3.486805693 2.997909676 3.434923957 0.296931884" Properties=species:S:1:pos:R:3:forces:R:3 generation=8 composition=Cr6 config_type=C15_aa source_path=V-Cr-Ti-W-Zr/Fixed_Engrads/vcrtiwzr_fin_engrads/job_gen_7-2025-02-12/Cr/Cr6_C15_idx_2937 date_processed=2025-02-12T16:44:48.146372 structure_index=2937 structure_id=20656 energy=-54.34843978881836 stress="-0.17977497378296534 -0.011725380183502925 0.08393265652126036 -0.011725380183502925 -0.010152257740397058 -0.004526891670893617 0.08393265652126036 -0.004526891670893617 -0.11945966974878977" calculation_info="_JSON {\"calculation_id\": 20655, \"calculator\": \"vasp\", \"calculation_source_path\": \"\", \"error\": null, \"status\": \"completed\", \"gpu_count\": null, \"parameters\": {}, \"date_started\": null, \"gpu_memory_mb\": null, \"model_version\": null, \"date_completed\": null, \"runtime_seconds\": null}" parent_id=20656 step=1 variance=0.03594227507710457 loss=0.03594227507710457 pbc="T T T"
Cr       0.77976000       0.84704000       0.90135000      -0.06816650       0.04159342       0.00679686
Cr       2.27897000       0.72586000       2.64476000      -0.06788175      -0.04455629       0.00527638
Cr       2.27871000       2.56450000       1.04982000      -0.11977613       0.02832296      -0.08227571
Cr       0.86061000       2.59891000       2.57489000      -0.12422864      -0.01994774      -0.08532546
Cr       3.06903000       3.35815000       3.57541000       0.22023442      -0.01726580       0.00059746
Cr       4.60854000       5.03223000       5.33812000       0.15981854       0.01185344       0.15493061
6
Lattice="0.161711039 3.503742224 3.347083291 2.998433541 -0.242363486 3.486805693 2.997909676 3.434923957 0.296931884" Properties=species:S:1:pos:R:3:forces:R:3 generation=8 composition=Cr6 config_type=C15_aa source_path=V-Cr-Ti-W-Zr/Fixed_Engrads/vcrtiwzr_fin_engrads/job_gen_7-2025-02-12/Cr/Cr6_C15_idx_2937 date_processed=2025-02-12T16:44:48.146372 structure_index=2937 structure_id=20656 energy=-54.339169311523435 stress="-0.17977497378296534 -0.011725380183502925 0.08393265652126036 -0.011725380183502925 -0.010152257740397058 -0.004526891670893617 0.08393265652126036 -0.004526891670893617 -0.11945966974878977" calculation_info="_JSON {\"calculation_id\": 20655, \"calculator\": \"vasp\", \"calculation_source_path\": \"\", \"error\": null, \"status\": \"completed\", \"gpu_count\": null, \"parameters\": {}, \"date_started\": null, \"gpu_memory_mb\": null, \"model_version\": null, \"date_completed\": null, \"runtime_seconds\": null}" parent_id=20656 step=2 variance=0.017444029450416565 loss=0.017444029450416565 pbc="T T T"
Cr       0.78644280       0.85376513       0.90808986      -0.11165400       0.06939767       0.00983511
Cr       2.28566871       0.73186125       2.65147378      -0.11314268      -0.06456529       0.00456061
Cr       2.28535334       2.57135178       1.05650498      -0.19754726       0.04283785      -0.13299397
Cr       0.86726258       2.60554117       2.58155047      -0.20382860      -0.03495995      -0.14225058
Cr       3.06281923       3.36484234       3.58142130       0.34021568      -0.01986233      -0.00764632
Cr       4.60198731       5.03892477       5.33172518       0.28595692       0.00715216       0.26849520
6
Lattice="0.161711039 3.503742224 3.347083291 2.998433541 -0.242363486 3.486805693 2.997909676 3.434923957 0.296931884" Properties=species:S:1:pos:R:3:forces:R:3 generation=8 composition=Cr6 config_type=C15_aa source_path=V-Cr-Ti-W-Zr/Fixed_Engrads/vcrtiwzr_fin_engrads/job_gen_7-2025-02-12/Cr/Cr6_C15_idx_2937 date_processed=2025-02-12T16:44:48.146372 structure_index=2937 structure_id=20656 energy=-54.32894287109375 stress="-0.17977497378296534 -0.011725380183502925 0.08393265652126036 -0.011725380183502925 -0.010152257740397058 -0.004526891670893617 0.08393265652126036 -0.004526891670893617 -0.11945966974878977" calculation_info="_JSON {\"calculation_id\": 20655, \"calculator\": \"vasp\", \"calculation_source_path\": \"\", \"error\": null, \"status\": \"completed\", \"gpu_count\": null, \"parameters\": {}, \"date_started\": null, \"gpu_memory_mb\": null, \"model_version\": null, \"date_completed\": null, \"runtime_seconds\": null}" parent_id=20656 step=3 variance=0.012788347899913788 loss=0.012788347899913788 pbc="T T T"
Cr       0.79160569       0.85897498       0.91332192      -0.14439674       0.09110953       0.01147809
Cr       2.29084631       0.73613458       2.65667116      -0.14828286      -0.07515243       0.00183950
Cr       2.29047150       2.57672115       1.06166684      -0.25689057       0.05188566      -0.17028627
Cr       0.87239175       2.61063954       2.58668444      -0.26395488      -0.04757007      -0.18655704
Cr       3.05816558       3.37001853       3.58574044       0.43094200      -0.02223827      -0.01153157
Cr       4.59695219       5.04409842       5.32681237       0.38258302       0.00196548       0.35505709
6
Lattice="0.161711039 3.503742224 3.347083291 2.998433541 -0.242363486 3.486805693 2.997909676 3.434923957 0.296931884" Properties=species:S:1:pos:R:3:forces:R:3 generation=8 composition=Cr6 config_type=C15_aa source_path=V-Cr-Ti-W-Zr/Fixed_Engrads/vcrtiwzr_fin_engrads/job_gen_7-2025-02-12/Cr/Cr6_C15_idx_2937 date_processed=2025-02-12T16:44:48.146372 structure_index=2937 structure_id=20656 energy=-54.31861801147461 stress="-0.17977497378296534 -0.011725380183502925 0.08393265652126036 -0.011725380183502925 -0.010152257740397058 -0.004526891670893617 0.08393265652126036 -0.004526891670893617 -0.11945966974878977" calculation_info="_JSON {\"calculation_id\": 20655, \"calculator\": \"vasp\", \"calculation_source_path\": \"\", \"error\": null, \"status\": \"completed\", \"gpu_count\": null, \"parameters\": {}, \"date_started\": null, \"gpu_memory_mb\": null, \"model_version\": null, \"date_completed\": null, \"runtime_seconds\": null}" parent_id=20656 step=4 variance=0.010924153961241245 loss=0.010924153961241245 pbc="T T T"
Cr       0.79583476       0.86325022       0.91762410      -0.17062017       0.10913472       0.01236620
Cr       2.29508711       0.73936252       2.66093392      -0.17727920      -0.08023221      -0.00198849
Cr       2.29465427       2.58117416       1.06589147      -0.30505306       0.05763264      -0.19959097
Cr       0.87658666       2.61479817       2.59088070      -0.31228918      -0.05877786      -0.22305222
Cr       3.05442923       3.37426198       3.58904792       0.50416219      -0.02444844      -0.01301949
Cr       4.59284282       5.04833703       5.32278664       0.46107945      -0.00330879       0.42528495
6
Lattice="0.161711039 3.503742224 3.347083291 2.998433541 -0.242363486 3.486805693 2.997909676 3.434923957 0.296931884" Properties=species:S:1:pos:R:3:forces:R:3 generation=8 composition=Cr6 config_type=C15_aa source_path=V-Cr-Ti-W-Zr/Fixed_Engrads/vcrtiwzr_fin_engrads/job_gen_7-2025-02-12/Cr/Cr6_C15_idx_2937 date_processed=2025-02-12T16:44:48.146372 structure_index=2937 structure_id=20656 energy=-54.308546447753905 stress="-0.17977497378296534 -0.011725380183502925 0.08393265652126036 -0.011725380183502925 -0.010152257740397058 -0.004526891670893617 0.08393265652126036 -0.004526891670893617 -0.11945966974878977" calculation_info="_JSON {\"calculation_id\": 20655, \"calculator\": \"vasp\", \"calculation_source_path\": \"\", \"error\": null, \"status\": \"completed\", \"gpu_count\": null, \"parameters\": {}, \"date_started\": null, \"gpu_memory_mb\": null, \"model_version\": null, \"date_completed\": null, \"runtime_seconds\": null}" parent_id=20656 step=5 variance=0.010033472441136837 loss=0.010033472441136837 pbc="T T T"
Cr       0.79941032       0.86686973       0.92127438      -0.19229893       0.12460566       0.01276221
Cr       2.29867115       0.74186640       2.66454119      -0.20200190      -0.08156168      -0.00653637
Cr       2.29818282       2.58498426       1.06945947      -0.34544021       0.06104993      -0.22342296
Cr       0.88012838       2.61829894       2.59442055      -0.35243282      -0.06906040      -0.25401551
Cr       3.05132215       3.37785223       3.59166370       0.56529814      -0.02652411      -0.01297323
Cr       4.58938017       5.05192141       5.31937503       0.52687573      -0.00850946       0.48418587
6
Lattice="0.161711039 3.503742224 3.347083291 2.998433541 -0.242363486 3.486805693 2.997909676 3.434923957 0.296931884" Properties=species:S:1:pos:R:3:forces:R:3 generation=8 composition=Cr6 config_type=C15_aa source_path=V-Cr-Ti-W-Zr/Fixed_Engrads/vcrtiwzr_fin_engrads/job_gen_7-2025-02-12/Cr/Cr6_C15_idx_2937 date_processed=2025-02-12T16:44:48.146372 structure_index=2937 structure_id=20656 energy=-54.29889831542969 stress="-0.17977497378296534 -0.011725380183502925 0.08393265652126036 -0.011725380183502925 -0.010152257740397058 -0.004526891670893617 0.08393265652126036 -0.004526891670893617 -0.11945966974878977" calculation_info="_JSON {\"calculation_id\": 20655, \"calculator\": \"vasp\", \"calculation_source_path\": \"\", \"error\": null, \"status\": \"completed\", \"gpu_count\": null, \"parameters\": {}, \"date_started\": null, \"gpu_memory_mb\": null, \"model_version\": null, \"date_completed\": null, \"runtime_seconds\": null}" parent_id=20656 step=6 variance=0.009581147693097591 loss=0.009581147693097591 pbc="T T T"
Cr       0.80249368       0.86999428       0.92443315      -0.21057224       0.13814683       0.01279199
Cr       2.30175968       0.74383012       2.66765366      -0.22349134      -0.08014943      -0.01160029
Cr       2.30121862       2.58830892       1.07253228      -0.38000005       0.06271564      -0.24322934
Cr       0.88317828       2.62130290       2.59746569      -0.38645339      -0.07864555      -0.28075358
Cr       3.04868280       3.38095061       3.59376164       0.61741126      -0.02850032      -0.01179786
Cr       4.58640455       5.05501291       5.31642325       0.58310586      -0.01356715       0.53458911
6
Lattice="0.161711039 3.503742224 3.347083291 2.998433541 -0.242363486 3.486805693 2.997909676 3.434923957 0.296931884" Properties=species:S:1:pos:R:3:forces:R:3 generation=8 composition=Cr6 config_type=C15_aa source_path=V-Cr-Ti-W-Zr/Fixed_Engrads/vcrtiwzr_fin_engrads/job_gen_7-2025-02-12/Cr/Cr6_C15_idx_2937 date_processed=2025-02-12T16:44:48.146372 structure_index=2937 structure_id=20656 energy=-54.28974151611328 stress="-0.17977497378296534 -0.011725380183502925 0.08393265652126036 -0.011725380183502925 -0.010152257740397058 -0.004526891670893617 0.08393265652126036 -0.004526891670893617 -0.11945966974878977" calculation_info="_JSON {\"calculation_id\": 20655, \"calculator\": \"vasp\", \"calculation_source_path\": \"\", \"error\": null, \"status\": \"completed\", \"gpu_count\": null, \"parameters\": {}, \"date_started\": null, \"gpu_memory_mb\": null, \"model_version\": null, \"date_completed\": null, \"runtime_seconds\": null}" parent_id=20656 step=7 variance=0.00935771781951189 loss=0.00935771781951189 pbc="T T T"
Cr       0.80518852       0.87272739       0.92720377      -0.22615834       0.15015456       0.01251406
Cr       2.30445641       0.74537247       2.67037471      -0.24240854      -0.07664222      -0.01705900
Cr       2.30386523       2.59124929       1.07521374      -0.40996304       0.06299467      -0.25993907
Cr       0.88584015       2.62391313       2.60012007      -0.41569251      -0.08767951      -0.30410784
Cr       3.04641024       3.38366047       3.59545040       0.66244704      -0.03038510      -0.00972626
Cr       4.58381341       5.05771536       5.31383276       0.63177550      -0.01844230       0.57831794
6
Lattice="0.161711039 3.503742224 3.347083291 2.998433541 -0.242363486 3.486805693 2.997909676 3.434923957 0.296931884" Properties=species:S:1:pos:R:3:forces:R:3 generation=8 composition=Cr6 config_type=C15_aa source_path=V-Cr-Ti-W-Zr/Fixed_Engrads/vcrtiwzr_fin_engrads/job_gen_7-2025-02-12/Cr/Cr6_C15_idx_2937 date_processed=2025-02-12T16:44:48.146372 structure_index=2937 structure_id=20656 energy=-54.28111724853515 stress="-0.17977497378296534 -0.011725380183502925 0.08393265652126036 -0.011725380183502925 -0.010152257740397058 -0.004526891670893617 0.08393265652126036 -0.004526891670893617 -0.11945966974878977" calculation_info="_JSON {\"calculation_id\": 20655, \"calculator\": \"vasp\", \"calculation_source_path\": \"\", \"error\": null, \"status\": \"completed\", \"gpu_count\": null, \"parameters\": {}, \"date_started\": null, \"gpu_memory_mb\": null, \"model_version\": null, \"date_completed\": null, \"runtime_seconds\": null}" parent_id=20656 step=8 variance=0.009263533167541027 loss=0.009263533167541027 pbc="T T T"
Cr       0.80756662       0.87514076       0.92965791      -0.23955922       0.16089341       0.01197118
Cr       2.30683318       0.74657781       2.67277591      -0.25920624      -0.07153106      -0.02280208
Cr       2.30619441       2.59387475       1.07757580      -0.43620187       0.06217111      -0.27418199
Cr       0.88818575       2.62620014       2.60245558      -0.44105667      -0.09622550      -0.32467037
Cr       3.04443533       3.38605333       3.59680868       0.70173347      -0.03219095      -0.00694229
Cr       4.58153585       5.06010041       5.31153586       0.67429054      -0.02311707       0.61662549
6
Lattice="0.161711039 3.503742224 3.347083291 2.998433541 -0.242363486 3.486805693 2.997909676 3.434923957 0.296931884" Properties=species:S:1:pos:R:3:forces:R:3 generation=8 composition=Cr6 config_type=C15_aa source_path=V-Cr-Ti-W-Zr/Fixed_Engrads/vcrtiwzr_fin_engrads/job_gen_7-2025-02-12/Cr/Cr6_C15_idx_2937 date_processed=2025-02-12T16:44:48.146372 structure_index=2937 structure_id=20656 energy=-54.27302780151367 stress="-0.17977497378296534 -0.011725380183502925 0.08393265652126036 -0.011725380183502925 -0.010152257740397058 -0.004526891670893617 0.08393265652126036 -0.004526891670893617 -0.11945966974878977" calculation_info="_JSON {\"calculation_id\": 20655, \"calculator\": \"vasp\", \"calculation_source_path\": \"\", \"error\": null, \"status\": \"completed\", \"gpu_count\": null, \"parameters\": {}, \"date_started\": null, \"gpu_memory_mb\": null, \"model_version\": null, \"date_completed\": null, \"runtime_seconds\": null}" parent_id=20656 step=9 variance=0.009246040135622025 loss=0.009246040135622025 pbc="T T T"
Cr       0.80968050       0.87728690       0.93184809      -0.25114602       0.17054643       0.01118837
Cr       2.30894250       0.74750795       2.67490952      -0.27420580      -0.06518518      -0.02875462
Cr       2.30825851       2.59623595       1.07967106      -0.45934096       0.06046139      -0.28642595
Cr       0.89026753       2.62821525       2.60452477      -0.46323094      -0.10432049      -0.34287238
Cr       3.04270783       3.38818133       3.59789051       0.73624247      -0.03392091      -0.00355528
Cr       4.57952040       5.06222059       5.30948395       0.71168125      -0.02758123       0.65042001
6
Lattice="0.161711039 3.503742224 3.347083291 2.998433541 -0.242363486 3.486805693 2.997909676 3.434923957 0.296931884" Properties=species:S:1:pos:R:3:forces:R:3 generation=8 composition=Cr6 config_type=C15_aa source_path=V-Cr-Ti-W-Zr/Fixed_Engrads/vcrtiwzr_fin_engrads/job_gen_7-2025-02-12/Cr/Cr6_C15_idx_2937 date_processed=2025-02-12T16:44:48.146372 structure_index=2937 structure_id=20656 energy=-54.265471649169925 stress="-0.17977497378296534 -0.011725380183502925 0.08393265652126036 -0.011725380183502925 -0.010152257740397058 -0.004526891670893617 0.08393265652126036 -0.004526891670893617 -0.11945966974878977" calculation_info="_JSON {\"calculation_id\": 20655, \"calculator\": \"vasp\", \"calculation_source_path\": \"\", \"error\": null, \"status\": \"completed\", \"gpu_count\": null, \"parameters\": {}, \"date_started\": null, \"gpu_memory_mb\": null, \"model_version\": null, \"date_completed\": null, \"runtime_seconds\": null}" parent_id=20656 step=10 variance=0.009274862706661224 loss=0.009274862706661224 pbc="T T T"
Cr       0.81157006       0.87920576       0.93381433      -0.26121777       0.17925391       0.01017040
Cr       2.31082434       0.74821267       2.67681537      -0.28763145      -0.05791587      -0.03483609
Cr       2.31009734       2.59837072       1.08153958      -0.47984609       0.05805515      -0.29703021
Cr       0.89212543       2.62999703       2.60636761      -0.48273650      -0.11196993      -0.35904652
Cr       3.04119022       3.39008445       3.59873992       0.76670134      -0.03558431       0.00033757
Cr       4.57772760       5.06411566       5.30763955       0.74473059      -0.03183898       0.68040484
6
Lattice="0.161711039 3.503742224 3.347083291 2.998433541 -0.242363486 3.486805693 2.997909676 3.434923957 0.296931884" Properties=species:S:1:pos:R:3:forces:R:3 generation=8 composition=Cr6 config_type=C15_aa source_path=V-Cr-Ti-W-Zr/Fixed_Engrads/vcrtiwzr_fin_engrads/job_gen_7-2025-02-12/Cr/Cr6_C15_idx_2937 date_processed=2025-02-12T16:44:48.146372 structure_index=2937 structure_id=20656 energy=-54.25842819213867 stress="-0.17977497378296534 -0.011725380183502925 0.08393265652126036 -0.011725380183502925 -0.010152257740397058 -0.004526891670893617 0.08393265652126036 -0.004526891670893617 -0.11945966974878977" calculation_info="_JSON {\"calculation_id\": 20655, \"calculator\": \"vasp\", \"calculation_source_path\": \"\", \"error\": null, \"status\": \"completed\", \"gpu_count\": null, \"parameters\": {}, \"date_started\": null, \"gpu_memory_mb\": null, \"model_version\": null, \"date_completed\": null, \"runtime_seconds\": null}" parent_id=20656 step=11 variance=0.009331257082521915 loss=0.009331257082521915 pbc="T T T"
Cr       0.81326673       0.88092876       0.93558809      -0.26999846       0.18711209       0.00892968
Cr       2.31251008       0.74873084       2.67852465      -0.29967967      -0.04996960      -0.04099910
Cr       2.31174216       2.60030845       1.08321279      -0.49808747       0.05510772      -0.30626792
Cr       0.89379077       2.63157597       2.60801550      -0.49997997      -0.11917365      -0.37345496
Cr       3.03985314       3.39179373       3.59938858       0.79368126      -0.03718007       0.00467505
Cr       4.57612637       5.06581691       5.30597380       0.77406406      -0.03589648       0.70711726
6
Lattice="0.161711039 3.503742224 3.347083291 2.998433541 -0.242363486 3.486805693 2.997909676 3.434923957 0.296931884" Properties=species:S:1:pos:R:3:forces:R:3 generation=8 composition=Cr6 config_type=C15_aa source_path=V-Cr-Ti-W-Zr/Fixed_Engrads/vcrtiwzr_fin_engrads/job_gen_7-2025-02-12/Cr/Cr6_C15_idx_2937 date_processed=2025-02-12T16:44:48.146372 structure_index=2937 structure_id=20656 energy=-54.25188064575195 stress="-0.17977497378296534 -0.011725380183502925 0.08393265652126036 -0.011725380183502925 -0.010152257740397058 -0.004526891670893617 0.08393265652126036 -0.004526891670893617 -0.11945966974878977" calculation_info="_JSON {\"calculation_id\": 20655, \"calculator\": \"vasp\", \"calculation_source_path\": \"\", \"error\": null, \"status\": \"completed\", \"gpu_count\": null, \"parameters\": {}, \"date_started\": null, \"gpu_memory_mb\": null, \"model_version\": null, \"date_completed\": null, \"runtime_seconds\": null}" parent_id=20656 step=12 variance=0.009403623640537262 loss=0.009403623640537262 pbc="T T T"
Cr       0.81479577       0.88248121       0.93719475      -0.27767211       0.19420332       0.00746616
Cr       2.31402500       0.74909500       2.68006250      -0.31048733      -0.04156961      -0.04716755
Cr       2.31321820       2.60207258       1.08471604      -0.51437122       0.05175284      -0.31436828
Cr       0.89528886       2.63297625       2.60949370      -0.51529449      -0.12591930      -0.38631654
Cr       3.03867315       3.39333430       3.59986535       0.81763923      -0.03871332       0.00938331
Cr       4.57469194       5.06734949       5.30446374       0.80018598      -0.03975385       0.73100281
6
Lattice="0.161711039 3.503742224 3.347083291 2.998433541 -0.242363486 3.486805693 2.997909676 3.434923957 0.296931884" Properties=species:S:1:pos:R:3:forces:R:3 generation=8 composition=Cr6 config_type=C15_aa source_path=V-Cr-Ti-W-Zr/Fixed_Engrads/vcrtiwzr_fin_engrads/job_gen_7-2025-02-12/Cr/Cr6_C15_idx_2937 date_processed=2025-02-12T16:44:48.146372 structure_index=2937 structure_id=20656 energy=-54.24580459594726 stress="-0.17977497378296534 -0.011725380183502925 0.08393265652126036 -0.011725380183502925 -0.010152257740397058 -0.004526891670893617 0.08393265652126036 -0.004526891670893617 -0.11945966974878977" calculation_info="_JSON {\"calculation_id\": 20655, \"calculator\": \"vasp\", \"calculation_source_path\": \"\", \"error\": null, \"status\": \"completed\", \"gpu_count\": null, \"parameters\": {}, \"date_started\": null, \"gpu_memory_mb\": null, \"model_version\": null, \"date_completed\": null, \"runtime_seconds\": null}" parent_id=20656 step=13 variance=0.00948414672166109 loss=0.00948414672166109 pbc="T T T"
Cr       0.81617789       0.88388392       0.93865516      -0.28439724       0.20058957       0.00578297
Cr       2.31538986       0.74933217       2.68144951      -0.32017308      -0.03290505      -0.05331079
Cr       2.31454606       2.60368151       1.08607012      -0.52893883       0.04811022      -0.32151189
Cr       0.89664031       2.63421771       2.61082289      -0.52894896      -0.13219337      -0.39781708
Cr       3.03763067       3.39472662       3.60018928       0.83896124      -0.04017720       0.01444244
Cr       4.57340379       5.06873394       5.30309017       0.82349682      -0.04342410       0.75241446
6
Lattice="0.161711039 3.503742224 3.347083291 2.998433541 -0.242363486 3.486805693 2.997909676 3.434923957 0.296931884" Properties=species:S:1:pos:R:3:forces:R:3 generation=8 composition=Cr6 config_type=C15_aa source_path=V-Cr-Ti-W-Zr/Fixed_Engrads/vcrtiwzr_fin_engrads/job_gen_7-2025-02-12/Cr/Cr6_C15_idx_2937 date_processed=2025-02-12T16:44:48.146372 structure_index=2937 structure_id=20656 energy=-54.24017105102539 stress="-0.17977497378296534 -0.011725380183502925 0.08393265652126036 -0.011725380183502925 -0.010152257740397058 -0.004526891670893617 0.08393265652126036 -0.004526891670893617 -0.11945966974878977" calculation_info="_JSON {\"calculation_id\": 20655, \"calculator\": \"vasp\", \"calculation_source_path\": \"\", \"error\": null, \"status\": \"completed\", \"gpu_count\": null, \"parameters\": {}, \"date_started\": null, \"gpu_memory_mb\": null, \"model_version\": null, \"date_completed\": null, \"runtime_seconds\": null}" parent_id=20656 step=14 variance=0.009568370878696442 loss=0.009568370878696442 pbc="T T T"
Cr       0.81743040       0.88515424       0.93998672      -0.29029959       0.20632307       0.00388075
Cr       2.31662202       0.74946674       2.68270295      -0.32883114      -0.02415179      -0.05936759
Cr       2.31574303       2.60515151       1.08729244      -0.54199040       0.04429224      -0.32786539
Cr       0.89786253       2.63531697       2.61202046      -0.54117519      -0.13797233      -0.40809345
Cr       3.03671010       3.39598791       3.60038107       0.85794145      -0.04158047       0.01979574
Cr       4.57224493       5.06998770       5.30183759       0.84435481      -0.04691076       0.77164990
6
Lattice="0.161711039 3.503742224 3.347083291 2.998433541 -0.242363486 3.486805693 2.997909676 3.434923957 0.296931884" Properties=species:S:1:pos:R:3:forces:R:3 generation=8 composition=Cr6 config_type=C15_aa source_path=V-Cr-Ti-W-Zr/Fixed_Engrads/vcrtiwzr_fin_engrads/job_gen_7-2025-02-12/Cr/Cr6_C15_idx_2937 date_processed=2025-02-12T16:44:48.146372 structure_index=2937 structure_id=20656 energy=-54.234962463378906 stress="-0.17977497378296534 -0.011725380183502925 0.08393265652126036 -0.011725380183502925 -0.010152257740397058 -0.004526891670893617 0.08393265652126036 -0.004526891670893617 -0.11945966974878977" calculation_info="_JSON {\"calculation_id\": 20655, \"calculator\": \"vasp\", \"calculation_source_path\": \"\", \"error\": null, \"status\": \"completed\", \"gpu_count\": null, \"parameters\": {}, \"date_started\": null, \"gpu_memory_mb\": null, \"model_version\": null, \"date_completed\": null, \"runtime_seconds\": null}" parent_id=20656 step=15 variance=0.009653822518885136 loss=0.009653822518885136 pbc="T T T"
Cr       0.81856799       0.88630696       0.94120426      -0.29549581       0.21144035       0.00175852
Cr       2.31773619       0.74951865       2.68383743      -0.33653098      -0.01545117      -0.06530409
Cr       2.31682376       2.60649586       1.08839777      -0.55370307       0.04038676      -0.33355016
Cr       0.89897016       2.63628799       2.61310107      -0.55217189      -0.14323127      -0.41728193
Cr       3.03589808       3.39713256       3.60045595       0.87485313      -0.04291619       0.02541496
Cr       4.57120083       5.07112524       5.30069290       0.86304843      -0.05022847       0.78896272
6
Lattice="0.161711039 3.503742224 3.347083291 2.998433541 -0.242363486 3.486805693 2.997909676 3.434923957 0.296931884" Properties=species:S:1:pos:R:3:forces:R:3 generation=8 composition=Cr6 config_type=C15_aa source_path=V-Cr-Ti-W-Zr/Fixed_Engrads/vcrtiwzr_fin_engrads/job_gen_7-2025-02-12/Cr/Cr6_C15_idx_2937 date_processed=2025-02-12T16:44:48.146372 structure_index=2937 structure_id=20656 energy=-54.23014678955078 stress="-0.17977497378296534 -0.011725380183502925 0.08393265652126036 -0.011725380183502925 -0.010152257740397058 -0.004526891670893617 0.08393265652126036 -0.004526891670893617 -0.11945966974878977" calculation_info="_JSON {\"calculation_id\": 20655, \"calculator\": \"vasp\", \"calculation_source_path\": \"\", \"error\": null, \"status\": \"completed\", \"gpu_count\": null, \"parameters\": {}, \"date_started\": null, \"gpu_memory_mb\": null, \"model_version\": null, \"date_completed\": null, \"runtime_seconds\": null}" parent_id=20656 step=16 variance=0.009738754481077194 loss=0.009738754481077194 pbc="T T T"
Cr       0.81960318       0.88735471       0.94232034      -0.30007619       0.21599023      -0.00058624
Cr       2.31874496       0.74950438       2.68486544      -0.34335577      -0.00692407      -0.07108814
Cr       2.31780072       2.60772574       1.08939872      -0.56422174       0.03646688      -0.33868402
Cr       0.89997568       2.63714270       2.61407725      -0.56209785      -0.14796445      -0.42549562
Cr       3.03518282       3.39817303       3.60042562       0.88991529      -0.04418455       0.03128408
Cr       4.57025905       5.07215900       5.29964465       0.87983638      -0.05338405       0.80456990
6