6
Lattice="0.070596285 3.621363224 3.73453417 3.747158618 0.006338248 3.633574393 3.657326276 3.700073547 0.063323897" Properties=species:S:1:pos:R:3:forces:R:3 generation=6 composition=W6 config_type=C15 source_path=V-Cr-Ti-W-Zr/Fixed_Engrads/vcrtiwzr_fin_engrads/job_gen_6-2024-12-23/W/W6_C15_idx_3011 date_processed=2025-02-12T16:53:55.138867 structure_index=3011 structure_id=21664 energy=-74.86771 stress="-0.05585711265423054 0.006896880067119252 0.012965674152471067 0.006896880067119252 -0.05738417275998739 0.009801740829396579 0.012965674152471067 0.009801740829396579 -0.058090774008128634" calculation_info="_JSON {\"calculation_id\": 21663, \"calculator\": \"vasp\", \"calculation_source_path\": \"\", \"error\": null, \"status\": \"completed\", \"gpu_count\": null, \"parameters\": {}, \"date_started\": null, \"gpu_memory_mb\": null, \"model_version\": null, \"date_completed\": null, \"runtime_seconds\": null}" pbc="T T T"
W        0.93439000       0.91597000       0.92893000       0.00000000       0.00000000       0.00000000
W        2.80796000       0.91914000       2.74572000       0.00000000       0.00000000       0.00000000
W        2.76305000       2.76601000       0.96059000       0.00000000       0.00000000       0.00000000
W        0.96968000       2.72665000       2.79620000       0.00000000       0.00000000       0.00000000
W        3.73754000       3.66389000       3.71572000      -0.03362200      -0.04666200      -0.02294700
W        5.60631000       5.49583000       5.57357000       0.03362200       0.04666200       0.02294700
6
Lattice="0.070596285 3.621363224 3.73453417 3.747158618 0.006338248 3.633574393 3.657326276 3.700073547 0.063323897" Properties=species:S:1:pos:R:3:forces:R:3 generation=8 composition=W6 config_type=C15_aa source_path=V-Cr-Ti-W-Zr/Fixed_Engrads/vcrtiwzr_fin_engrads/job_gen_6-2024-12-23/W/W6_C15_idx_3011 date_processed=2025-02-12T16:53:55.138867 structure_index=3011 structure_id=21664 energy=-74.80567321777343 stress="-0.05585711265423054 0.006896880067119252 0.012965674152471067 0.006896880067119252 -0.05738417275998739 0.009801740829396579 0.012965674152471067 0.009801740829396579 -0.058090774008128634" calculation_info="_JSON {\"calculation_id\": 21663, \"calculator\": \"vasp\", \"calculation_source_path\": \"\", \"error\": null, \"status\": \"completed\", \"gpu_count\": null, \"parameters\": {}, \"date_started\": null, \"gpu_memory_mb\": null, \"model_version\": null, \"date_completed\": null, \"runtime_seconds\": null}" parent_id=21664 step=0 variance=0.2078825980424881 loss=0.2078825980424881 pbc="T T T"
W        0.93439000       0.91597000       0.92893000      -0.00006369       0.00002468      -0.00005434
W        2.80796000       0.91914000       2.74572000       0.00009760       0.00003836      -0.00002223
W        2.76305000       2.76601000       0.96059000      -0.00008491      -0.00004923       0.00014014
W        0.96968000       2.72665000       2.79620000       0.00005364       0.00004718      -0.00011378
W        3.73754000       3.66389000       3.71572000      -0.02272459      -0.03222132      -0.01642618
W        5.60631000       5.49583000       5.57357000       0.02272183       0.03216041       0.01647644
6
Lattice="0.070596285 3.621363224 3.73453417 3.747158618 0.006338248 3.633574393 3.657326276 3.700073547 0.063323897" Properties=species:S:1:pos:R:3:forces:R:3 generation=8 composition=W6 config_type=C15_aa source_path=V-Cr-Ti-W-Zr/Fixed_Engrads/vcrtiwzr_fin_engrads/job_gen_6-2024-12-23/W/W6_C15_idx_3011 date_processed=2025-02-12T16:53:55.138867 structure_index=3011 structure_id=21664 energy=-74.80425109863282 stress="-0.05585711265423054 0.006896880067119252 0.012965674152471067 0.006896880067119252 -0.05738417275998739 0.009801740829396579 0.012965674152471067 0.009801740829396579 -0.058090774008128634" calculation_info="_JSON {\"calculation_id\": 21663, \"calculator\": \"vasp\", \"calculation_source_path\": \"\", \"error\": null, \"status\": \"completed\", \"gpu_count\": null, \"parameters\": {}, \"date_started\": null, \"gpu_memory_mb\": null, \"model_version\": null, \"date_completed\": null, \"runtime_seconds\": null}" parent_id=21664 step=1 variance=0.0832924172282219 loss=0.0832924172282219 pbc="T T T"
W        0.94439000       0.92597000       0.93893000       0.01807505      -0.04294911       0.01805414
W        2.81796000       0.92914000       2.75572000      -0.01897131      -0.04377890      -0.01819139
W        2.77305000       2.77601000       0.97059000       0.01568206      -0.04328083      -0.01507737
W        0.97968000       2.73665000       2.80620000      -0.01428833      -0.04441724       0.01566087
W        3.74754000       3.65389000       3.72572000      -0.02310174       0.17405443      -0.01642664
W        5.61631000       5.50583000       5.58357000       0.02260410       0.00037154       0.01598044
6
Lattice="0.070596285 3.621363224 3.73453417 3.747158618 0.006338248 3.633574393 3.657326276 3.700073547 0.063323897" Properties=species:S:1:pos:R:3:forces:R:3 generation=8 composition=W6 config_type=C15_aa source_path=V-Cr-Ti-W-Zr/Fixed_Engrads/vcrtiwzr_fin_engrads/job_gen_6-2024-12-23/W/W6_C15_idx_3011 date_processed=2025-02-12T16:53:55.138867 structure_index=3011 structure_id=21664 energy=-74.80113372802734 stress="-0.05585711265423054 0.006896880067119252 0.012965674152471067 0.006896880067119252 -0.05738417275998739 0.009801740829396579 0.012965674152471067 0.009801740829396579 -0.058090774008128634" calculation_info="_JSON {\"calculation_id\": 21663, \"calculator\": \"vasp\", \"calculation_source_path\": \"\", \"error\": null, \"status\": \"completed\", \"gpu_count\": null, \"parameters\": {}, \"date_started\": null, \"gpu_memory_mb\": null, \"model_version\": null, \"date_completed\": null, \"runtime_seconds\": null}" parent_id=21664 step=2 variance=0.082205630838871 loss=0.082205630838871 pbc="T T T"
W        0.95095082       0.93279887       0.94553325       0.02944573      -0.08160386       0.03516994
W        2.82402259       0.93584701       2.76227336      -0.03140529      -0.07031723      -0.02551856
W        2.77966333       2.78281380       0.97691797       0.03076009      -0.07880757      -0.01165469
W        0.98587694       2.74380529       2.81262581      -0.01245906      -0.08475538       0.03194900
W        3.75355780       3.64757555       3.73219361      -0.01669051       0.30370909      -0.01140163
W        5.62477022       5.50950125       5.59335402       0.00034898       0.01177514      -0.01854402
6
Lattice="0.070596285 3.621363224 3.73453417 3.747158618 0.006338248 3.633574393 3.657326276 3.700073547 0.063323897" Properties=species:S:1:pos:R:3:forces:R:3 generation=8 composition=W6 config_type=C15_aa source_path=V-Cr-Ti-W-Zr/Fixed_Engrads/vcrtiwzr_fin_engrads/job_gen_6-2024-12-23/W/W6_C15_idx_3011 date_processed=2025-02-12T16:53:55.138867 structure_index=3011 structure_id=21664 energy=-74.79744720458984 stress="-0.05585711265423054 0.006896880067119252 0.012965674152471067 0.006896880067119252 -0.05738417275998739 0.009801740829396579 0.012965674152471067 0.009801740829396579 -0.058090774008128634" calculation_info="_JSON {\"calculation_id\": 21663, \"calculator\": \"vasp\", \"calculation_source_path\": \"\", \"error\": null, \"status\": \"completed\", \"gpu_count\": null, \"parameters\": {}, \"date_started\": null, \"gpu_memory_mb\": null, \"model_version\": null, \"date_completed\": null, \"runtime_seconds\": null}" parent_id=21664 step=3 variance=0.07916463911533356 loss=0.07916463911533356 pbc="T T T"
W        0.95605017       0.93799679       0.95099200       0.03657634      -0.10420978       0.02319024
W        2.82804107       0.94102656       2.76769378      -0.01870437      -0.10380082      -0.04238066
W        2.78483370       2.78804391       0.98205079       0.03098654      -0.10893463      -0.02220917
W        0.99071659       2.74873229       2.81792237      -0.02722022      -0.09096598       0.02914484
W        3.75831094       3.64232771       3.73754201      -0.01668932       0.40763038      -0.01805853
W        5.62997691       5.51404102       5.59402238      -0.00494903       0.00028075       0.03031327
6
Lattice="0.070596285 3.621363224 3.73453417 3.747158618 0.006338248 3.633574393 3.657326276 3.700073547 0.063323897" Properties=species:S:1:pos:R:3:forces:R:3 generation=8 composition=W6 config_type=C15_aa source_path=V-Cr-Ti-W-Zr/Fixed_Engrads/vcrtiwzr_fin_engrads/job_gen_6-2024-12-23/W/W6_C15_idx_3011 date_processed=2025-02-12T16:53:55.138867 structure_index=3011 structure_id=21664 energy=-74.7935791015625 stress="-0.05585711265423054 0.006896880067119252 0.012965674152471067 0.006896880067119252 -0.05738417275998739 0.009801740829396579 0.012965674152471067 0.009801740829396579 -0.058090774008128634" calculation_info="_JSON {\"calculation_id\": 21663, \"calculator\": \"vasp\", \"calculation_source_path\": \"\", \"error\": null, \"status\": \"completed\", \"gpu_count\": null, \"parameters\": {}, \"date_started\": null, \"gpu_memory_mb\": null, \"model_version\": null, \"date_completed\": null, \"runtime_seconds\": null}" parent_id=21664 step=4 variance=0.07745950669050217 loss=0.07745950669050217 pbc="T T T"
W        0.96037173       0.94228604       0.95519217       0.03106139      -0.12322766       0.02745261
W        2.83193139       0.94526510       2.77134732      -0.02751340      -0.12692446      -0.03968319
W        2.78907345       2.79228179       0.98589923       0.02766793      -0.12267397      -0.02622726
W        0.99462520       2.75312715       2.82209098      -0.03196955      -0.11404215       0.02802294
W        3.76247879       3.63797100       3.74158973      -0.02179126       0.49334770      -0.01918232
W        5.63142429       5.51754095       5.59801024       0.02254502      -0.00647950       0.02961709
6
Lattice="0.070596285 3.621363224 3.73453417 3.747158618 0.006338248 3.633574393 3.657326276 3.700073547 0.063323897" Properties=species:S:1:pos:R:3:forces:R:3 generation=8 composition=W6 config_type=C15_aa source_path=V-Cr-Ti-W-Zr/Fixed_Engrads/vcrtiwzr_fin_engrads/job_gen_6-2024-12-23/W/W6_C15_idx_3011 date_processed=2025-02-12T16:53:55.138867 structure_index=3011 structure_id=21664 energy=-74.7898162841797 stress="-0.05585711265423054 0.006896880067119252 0.012965674152471067 0.006896880067119252 -0.05738417275998739 0.009801740829396579 0.012965674152471067 0.009801740829396579 -0.058090774008128634" calculation_info="_JSON {\"calculation_id\": 21663, \"calculator\": \"vasp\", \"calculation_source_path\": \"\", \"error\": null, \"status\": \"completed\", \"gpu_count\": null, \"parameters\": {}, \"date_started\": null, \"gpu_memory_mb\": null, \"model_version\": null, \"date_completed\": null, \"runtime_seconds\": null}" parent_id=21664 step=5 variance=0.11361256241798401 loss=0.11361256241798401 pbc="T T T"
W        0.96399251       0.94597655       0.95860275       0.02716243      -0.14509413       0.03262718
W        2.83503699       0.94884376       2.77409898      -0.03273511      -0.14153107      -0.03206151
W        2.79260983       2.79588378       0.98884071       0.03031174      -0.13532171      -0.02057846
W        0.99763514       2.75708748       2.82541025      -0.02345450      -0.13889427       0.03107682
W        3.76573824       3.63433893       3.74478931      -0.02078190       0.56391525      -0.01729887
W        5.63507104       5.51965166       5.60333226       0.01949741      -0.00307402       0.00623485
6
Lattice="0.070596285 3.621363224 3.73453417 3.747158618 0.006338248 3.633574393 3.657326276 3.700073547 0.063323897" Properties=species:S:1:pos:R:3:forces:R:3 generation=8 composition=W6 config_type=C15_aa source_path=V-Cr-Ti-W-Zr/Fixed_Engrads/vcrtiwzr_fin_engrads/job_gen_6-2024-12-23/W/W6_C15_idx_3011 date_processed=2025-02-12T16:53:55.138867 structure_index=3011 structure_id=21664 energy=-74.78612365722657 stress="-0.05585711265423054 0.006896880067119252 0.012965674152471067 0.006896880067119252 -0.05738417275998739 0.009801740829396579 0.012965674152471067 0.009801740829396579 -0.058090774008128634" calculation_info="_JSON {\"calculation_id\": 21663, \"calculator\": \"vasp\", \"calculation_source_path\": \"\", \"error\": null, \"status\": \"completed\", \"gpu_count\": null, \"parameters\": {}, \"date_started\": null, \"gpu_memory_mb\": null, \"model_version\": null, \"date_completed\": null, \"runtime_seconds\": null}" parent_id=21664 step=6 variance=0.10334552079439163 loss=0.10334552079439163 pbc="T T T"
W        0.96696551       0.94920655       0.96160208       0.02258934      -0.16987737       0.02541943
W        2.83665040       0.95191624       2.77647398      -0.01650842      -0.15416990      -0.02230515
W        2.79558933       2.79902022       0.99112806       0.03521464      -0.15041341      -0.00487238
W        0.99975540       2.76034143       2.82813142      -0.01028342      -0.14860538       0.03645667
W        3.76790748       3.63116998       3.74747851      -0.01328244       0.62321913      -0.01400760
W        5.64106836       5.52132822       5.60859848      -0.01772959      -0.00015316      -0.02069101
6
Lattice="0.070596285 3.621363224 3.73453417 3.747158618 0.006338248 3.633574393 3.657326276 3.700073547 0.063323897" Properties=species:S:1:pos:R:3:forces:R:3 generation=8 composition=W6 config_type=C15_aa source_path=V-Cr-Ti-W-Zr/Fixed_Engrads/vcrtiwzr_fin_engrads/job_gen_6-2024-12-23/W/W6_C15_idx_3011 date_processed=2025-02-12T16:53:55.138867 structure_index=3011 structure_id=21664 energy=-74.78245391845704 stress="-0.05585711265423054 0.006896880067119252 0.012965674152471067 0.006896880067119252 -0.05738417275998739 0.009801740829396579 0.012965674152471067 0.009801740829396579 -0.058090774008128634" calculation_info="_JSON {\"calculation_id\": 21663, \"calculator\": \"vasp\", \"calculation_source_path\": \"\", \"error\": null, \"status\": \"completed\", \"gpu_count\": null, \"parameters\": {}, \"date_started\": null, \"gpu_memory_mb\": null, \"model_version\": null, \"date_completed\": null, \"runtime_seconds\": null}" parent_id=21664 step=7 variance=0.15232034027576447 loss=0.15232034027576447 pbc="T T T"
W        0.96968688       0.95193070       0.96449798       0.01417625      -0.18435237       0.01074596
W        2.83814505       0.95460274       2.77883708       0.00074637      -0.17449191      -0.01846103
W        2.79828370       2.80171108       0.99345765       0.02969744      -0.16079386      -0.00286028
W        1.00192704       2.76275174       2.83086697      -0.01459405      -0.14591159       0.03224455
W        3.77027788       3.62806803       3.75016548      -0.01556855       0.67936957      -0.01685434
W        5.64298280       5.52421216       5.60970798      -0.01445736      -0.01381989      -0.00481486
6
Lattice="0.070596285 3.621363224 3.73453417 3.747158618 0.006338248 3.633574393 3.657326276 3.700073547 0.063323897" Properties=species:S:1:pos:R:3:forces:R:3 generation=8 composition=W6 config_type=C15_aa source_path=V-Cr-Ti-W-Zr/Fixed_Engrads/vcrtiwzr_fin_engrads/job_gen_6-2024-12-23/W/W6_C15_idx_3011 date_processed=2025-02-12T16:53:55.138867 structure_index=3011 structure_id=21664 energy=-74.77877807617188 stress="-0.05585711265423054 0.006896880067119252 0.012965674152471067 0.006896880067119252 -0.05738417275998739 0.009801740829396579 0.012965674152471067 0.009801740829396579 -0.058090774008128634" calculation_info="_JSON {\"calculation_id\": 21663, \"calculator\": \"vasp\", \"calculation_source_path\": \"\", \"error\": null, \"status\": \"completed\", \"gpu_count\": null, \"parameters\": {}, \"date_started\": null, \"gpu_memory_mb\": null, \"model_version\": null, \"date_completed\": null, \"runtime_seconds\": null}" parent_id=21664 step=8 variance=0.09487178176641464 loss=0.09487178176641464 pbc="T T T"
W        0.97229322       0.95428840       0.96696243       0.00150263      -0.19238460       0.00671680
W        2.84033838       0.95697712       2.78058532      -0.00095950      -0.19331700      -0.01052019
W        2.80073170       2.80402157       0.99556098       0.01996937      -0.16174176      -0.00839960
W        1.00417614       2.76497885       2.83338820      -0.02168520      -0.15367115       0.02469004
W        3.77299343       3.62521919       3.75251283      -0.02522396       0.73118305      -0.02042929
W        5.64144667       5.52719876       5.61064449       0.02639661      -0.03006862       0.00794221
6
Lattice="0.070596285 3.621363224 3.73453417 3.747158618 0.006338248 3.633574393 3.657326276 3.700073547 0.063323897" Properties=species:S:1:pos:R:3:forces:R:3 generation=8 composition=W6 config_type=C15_aa source_path=V-Cr-Ti-W-Zr/Fixed_Engrads/vcrtiwzr_fin_engrads/job_gen_6-2024-12-23/W/W6_C15_idx_3011 date_processed=2025-02-12T16:53:55.138867 structure_index=3011 structure_id=21664 energy=-74.77536468505859 stress="-0.05585711265423054 0.006896880067119252 0.012965674152471067 0.006896880067119252 -0.05738417275998739 0.009801740829396579 0.012965674152471067 0.009801740829396579 -0.058090774008128634" calculation_info="_JSON {\"calculation_id\": 21663, \"calculator\": \"vasp\", \"calculation_source_path\": \"\", \"error\": null, \"status\": \"completed\", \"gpu_count\": null, \"parameters\": {}, \"date_started\": null, \"gpu_memory_mb\": null, \"model_version\": null, \"date_completed\": null, \"runtime_seconds\": null}" parent_id=21664 step=9 variance=0.08057888597249985 loss=0.08057888597249985 pbc="T T T"
W        0.97445407       0.95646225       0.96914745      -0.00682015      -0.20474920      -0.00009073
W        2.84162324       0.95908902       2.78223945       0.00604658      -0.20899796      -0.00516752
W        2.80283677       2.80614759       0.99728184       0.01542545      -0.16994883      -0.00672755
W        1.00584026       2.76713596       2.83547096      -0.02279504      -0.16042067       0.02076365
W        3.77492361       3.62282447       3.75453881      -0.02835979       0.77368486      -0.02242308
W        5.64227000       5.52843390       5.61201291       0.03650295      -0.02956818       0.01364511
6
Lattice="0.070596285 3.621363224 3.73453417 3.747158618 0.006338248 3.633574393 3.657326276 3.700073547 0.063323897" Properties=species:S:1:pos:R:3:forces:R:3 generation=8 composition=W6 config_type=C15_aa source_path=V-Cr-Ti-W-Zr/Fixed_Engrads/vcrtiwzr_fin_engrads/job_gen_6-2024-12-23/W/W6_C15_idx_3011 date_processed=2025-02-12T16:53:55.138867 structure_index=3011 structure_id=21664 energy=-74.77225341796876 stress="-0.05585711265423054 0.006896880067119252 0.012965674152471067 0.006896880067119252 -0.05738417275998739 0.009801740829396579 0.012965674152471067 0.009801740829396579 -0.058090774008128634" calculation_info="_JSON {\"calculation_id\": 21663, \"calculator\": \"vasp\", \"calculation_source_path\": \"\", \"error\": null, \"status\": \"completed\", \"gpu_count\": null, \"parameters\": {}, \"date_started\": null, \"gpu_memory_mb\": null, \"model_version\": null, \"date_completed\": null, \"runtime_seconds\": null}" parent_id=21664 step=10 variance=0.10325329750776291 loss=0.10325329750776291 pbc="T T T"
W        0.97627595       0.95846633       0.97108925      -0.01292516      -0.21961829      -0.00824543
W        2.84229079       0.96097666       2.78375885       0.01798974      -0.22191091      -0.00076283
W        2.80466410       2.80809858       0.99868705       0.01397565      -0.18210474       0.00000830
W        1.00706689       2.76920309       2.83720474      -0.01971754      -0.16679946       0.01924979
W        3.77628586       3.62077503       3.75629574      -0.02739155       0.80926913      -0.02323626
W        5.64444182       5.52855953       5.61376576       0.02806903      -0.01883568       0.01298651
6
Lattice="0.070596285 3.621363224 3.73453417 3.747158618 0.006338248 3.633574393 3.657326276 3.700073547 0.063323897" Properties=species:S:1:pos:R:3:forces:R:3 generation=8 composition=W6 config_type=C15_aa source_path=V-Cr-Ti-W-Zr/Fixed_Engrads/vcrtiwzr_fin_engrads/job_gen_6-2024-12-23/W/W6_C15_idx_3011 date_processed=2025-02-12T16:53:55.138867 structure_index=3011 structure_id=21664 energy=-74.76932983398437 stress="-0.05585711265423054 0.006896880067119252 0.012965674152471067 0.006896880067119252 -0.05738417275998739 0.009801740829396579 0.012965674152471067 0.009801740829396579 -0.058090774008128634" calculation_info="_JSON {\"calculation_id\": 21663, \"calculator\": \"vasp\", \"calculation_source_path\": \"\", \"error\": null, \"status\": \"completed\", \"gpu_count\": null, \"parameters\": {}, \"date_started\": null, \"gpu_memory_mb\": null, \"model_version\": null, \"date_completed\": null, \"runtime_seconds\": null}" parent_id=21664 step=11 variance=0.15870733559131622 loss=0.15870733559131622 pbc="T T T"
W        0.97779938       0.96032129       0.97281957      -0.01919216      -0.23720717      -0.02004645
W        2.84228575       0.96266432       2.78507999       0.03773977      -0.23251626       0.00545854
W        2.80624413       2.80988181       0.99974972       0.01452662      -0.19620283       0.01306777
W        1.00783755       2.77108587       2.83861132      -0.01232828      -0.16955891       0.02015248
W        3.77708826       3.61898184       3.75778335      -0.02258726       0.83933008      -0.02254693
W        5.64789253       5.52811283       5.61611258       0.00184122      -0.00384502       0.00391459
6
Lattice="0.070596285 3.621363224 3.73453417 3.747158618 0.006338248 3.633574393 3.657326276 3.700073547 0.063323897" Properties=species:S:1:pos:R:3:forces:R:3 generation=8 composition=W6 config_type=C15_aa source_path=V-Cr-Ti-W-Zr/Fixed_Engrads/vcrtiwzr_fin_engrads/job_gen_6-2024-12-23/W/W6_C15_idx_3011 date_processed=2025-02-12T16:53:55.138867 structure_index=3011 structure_id=21664 energy=-74.76644134521484 stress="-0.05585711265423054 0.006896880067119252 0.012965674152471067 0.006896880067119252 -0.05738417275998739 0.009801740829396579 0.012965674152471067 0.009801740829396579 -0.058090774008128634" calculation_info="_JSON {\"calculation_id\": 21663, \"calculator\": \"vasp\", \"calculation_source_path\": \"\", \"error\": null, \"status\": \"completed\", \"gpu_count\": null, \"parameters\": {}, \"date_started\": null, \"gpu_memory_mb\": null, \"model_version\": null, \"date_completed\": null, \"runtime_seconds\": null}" parent_id=21664 step=12 variance=0.088358074426651 loss=0.088358074426651 pbc="T T T"
W        0.97913784       0.96203258       0.97427411      -0.02857364      -0.25642496      -0.03256575
W        2.84198971       0.96417238       2.78594316       0.05971425      -0.24021745       0.01802211
W        2.80762135       2.81147393       1.00043237       0.01573627      -0.20713632       0.03108065
W        1.00825567       2.77280055       2.83970287       0.00047519      -0.17186624       0.02288189
W        3.77750248       3.61738381       3.75890107      -0.01531554       0.86537731      -0.01961259
W        5.65183928       5.52759151       5.61953400      -0.03203659       0.01026744      -0.01980616
6
Lattice="0.070596285 3.621363224 3.73453417 3.747158618 0.006338248 3.633574393 3.657326276 3.700073547 0.063323897" Properties=species:S:1:pos:R:3:forces:R:3 generation=8 composition=W6 config_type=C15_aa source_path=V-Cr-Ti-W-Zr/Fixed_Engrads/vcrtiwzr_fin_engrads/job_gen_6-2024-12-23/W/W6_C15_idx_3011 date_processed=2025-02-12T16:53:55.138867 structure_index=3011 structure_id=21664 energy=-74.76355895996093 stress="-0.05585711265423054 0.006896880067119252 0.012965674152471067 0.006896880067119252 -0.05738417275998739 0.009801740829396579 0.012965674152471067 0.009801740829396579 -0.058090774008128634" calculation_info="_JSON {\"calculation_id\": 21663, \"calculator\": \"vasp\", \"calculation_source_path\": \"\", \"error\": null, \"status\": \"completed\", \"gpu_count\": null, \"parameters\": {}, \"date_started\": null, \"gpu_memory_mb\": null, \"model_version\": null, \"date_completed\": null, \"runtime_seconds\": null}" parent_id=21664 step=13 variance=0.06660299003124237 loss=0.06660299003124237 pbc="T T T"
W        0.98047911       0.96351697       0.97569102      -0.04032172      -0.27078718      -0.04631897
W        2.84198471       0.96553364       2.78669238       0.07940197      -0.25093284       0.03054888
W        2.80892714       2.81285291       1.00118654       0.01330407      -0.21241793       0.04204569
W        1.00885978       2.77411372       2.84087976       0.00644061      -0.16974755       0.02224928
W        3.77826915       3.61570370       3.76002344      -0.01348110       0.89211190      -0.01882586
W        5.65392221       5.52811501       5.62158989      -0.04534391       0.01177352      -0.02969894
6
Lattice="0.070596285 3.621363224 3.73453417 3.747158618 0.006338248 3.633574393 3.657326276 3.700073547 0.063323897" Properties=species:S:1:pos:R:3:forces:R:3 generation=8 composition=W6 config_type=C15_aa source_path=V-Cr-Ti-W-Zr/Fixed_Engrads/vcrtiwzr_fin_engrads/job_gen_6-2024-12-23/W/W6_C15_idx_3011 date_processed=2025-02-12T16:53:55.138867 structure_index=3011 structure_id=21664 energy=-74.76083221435547 stress="-0.05585711265423054 0.006896880067119252 0.012965674152471067 0.006896880067119252 -0.05738417275998739 0.009801740829396579 0.012965674152471067 0.009801740829396579 -0.058090774008128634" calculation_info="_JSON {\"calculation_id\": 21663, \"calculator\": \"vasp\", \"calculation_source_path\": \"\", \"error\": null, \"status\": \"completed\", \"gpu_count\": null, \"parameters\": {}, \"date_started\": null, \"gpu_memory_mb\": null, \"model_version\": null, \"date_completed\": null, \"runtime_seconds\": null}" parent_id=21664 step=14 variance=0.06808333843946457 loss=0.06808333843946457 pbc="T T T"
W        0.98177871       0.96482806       0.97704634      -0.05259838      -0.28210765      -0.05995458
W        2.84216481       0.96676857       2.78737112       0.09662747      -0.26341540       0.04205442
W        2.81014925       2.81406860       1.00197822       0.00933319      -0.21481898       0.04790742
W        1.00957491       2.77517923       2.84207235       0.00779700      -0.16588171       0.01991187
W        3.77921571       3.61405636       3.76111401      -0.01472527       0.91793859      -0.01931147
W        5.65487478       5.52901717       5.62273079      -0.04643421       0.00828529      -0.03060756
6
Lattice="0.070596285 3.621363224 3.73453417 3.747158618 0.006338248 3.633574393 3.657326276 3.700073547 0.063323897" Properties=species:S:1:pos:R:3:forces:R:3 generation=8 composition=W6 config_type=C15_aa source_path=V-Cr-Ti-W-Zr/Fixed_Engrads/vcrtiwzr_fin_engrads/job_gen_6-2024-12-23/W/W6_C15_idx_3011 date_processed=2025-02-12T16:53:55.138867 structure_index=3011 structure_id=21664 energy=-74.75827331542969 stress="-0.05585711265423054 0.006896880067119252 0.012965674152471067 0.006896880067119252 -0.05738417275998739 0.009801740829396579 0.012965674152471067 0.009801740829396579 -0.058090774008128634" calculation_info="_JSON {\"calculation_id\": 21663, \"calculator\": \"vasp\", \"calculation_source_path\": \"\", \"error\": null, \"status\": \"completed\", \"gpu_count\": null, \"parameters\": {}, \"date_started\": null, \"gpu_memory_mb\": null, \"model_version\": null, \"date_completed\": null, \"runtime_seconds\": null}" parent_id=21664 step=15 variance=0.09102620929479599 loss=0.09102620929479599 pbc="T T T"
W        0.98304307       0.96598682       0.97834795      -0.06505781      -0.29075560      -0.07319512
W        2.84253031       0.96789325       2.78799843       0.11127876      -0.27766508       0.05231599
W        2.81129820       2.81514188       1.00281836       0.00424749      -0.21485242       0.04875804
W        1.01040843       2.77603234       2.84328135       0.00470010      -0.16078593       0.01623081
W        3.78033979       3.61245254       3.76218092      -0.01877335       0.94277734      -0.02095341
W        5.65480742       5.53017643       5.62302696      -0.03639521       0.00128178      -0.02315625
6
Lattice="0.070596285 3.621363224 3.73453417 3.747158618 0.006338248 3.633574393 3.657326276 3.700073547 0.063323897" Properties=species:S:1:pos:R:3:forces:R:3 generation=8 composition=W6 config_type=C15_aa source_path=V-Cr-Ti-W-Zr/Fixed_Engrads/vcrtiwzr_fin_engrads/job_gen_6-2024-12-23/W/W6_C15_idx_3011 date_processed=2025-02-12T16:53:55.138867 structure_index=3011 structure_id=21664 energy=-74.75582427978516 stress="-0.05585711265423054 0.006896880067119252 0.012965674152471067 0.006896880067119252 -0.05738417275998739 0.009801740829396579 0.012965674152471067 0.009801740829396579 -0.058090774008128634" calculation_info="_JSON {\"calculation_id\": 21663, \"calculator\": \"vasp\", \"calculation_source_path\": \"\", \"error\": null, \"status\": \"completed\", \"gpu_count\": null, \"parameters\": {}, \"date_started\": null, \"gpu_memory_mb\": null, \"model_version\": null, \"date_completed\": null, \"runtime_seconds\": null}" parent_id=21664 step=16 variance=0.16480810940265656 loss=0.16480810940265656 pbc="T T T"
W        0.98431690       0.96699245       0.97962664      -0.07766029      -0.29602489      -0.08570667
W        2.84320920       0.96892262       2.78859899       0.12221682      -0.29454908       0.06088848
W        2.81240329       2.81607561       1.00377477      -0.00222595      -0.21180864       0.04275461
W        1.01145710       2.77665848       2.84456517      -0.00432570      -0.15444367       0.01079324
W        3.78179048       3.61085238       3.76327923      -0.02692352       0.96736670      -0.02433270
W        5.65340282       5.53172553       5.62223142      -0.01108119      -0.01054070      -0.00439699
6