6
Lattice="-0.1782032 3.825037604 3.778352412 4.090648048 -0.384953521 3.542617783 3.76896661 3.71818602 0.013984015" Properties=species:S:1:pos:R:3:forces:R:3 batch_id=T generation=6 composition=V6 config_type=C15 source_path=V-Cr-Ti-W-Zr/Fixed_Engrads/vcrtiwzr_fin_engrads/job_gen_6-2024-12-23/V/V6_C15_idx_3066 temperature=T date_processed=2025-01-03T17:40:30.389023 structure_type=T structure_index=3066 adversarial_step=T structure_id=8375 energy=-48.8734 stress="0.18754341818442297 -0.01709178603937347 -0.0011260805934736056 -0.01709178603937347 0.18369587733282697 0.00043664973693766687 -0.0011260805934736056 0.00043664973693766687 0.1699634712332959" calculation_info="_JSON {\"calculation_id\": 8375, \"calculator\": \"vasp\", \"calculation_source_path\": \"\", \"error\": null, \"status\": \"completed\", \"gpu_count\": null, \"parameters\": {}, \"date_started\": null, \"gpu_memory_mb\": null, \"model_version\": null, \"date_completed\": null, \"runtime_seconds\": null}" pbc="T T T"
V        0.96018000       0.89478000       0.91687000       0.00000000       0.00000000       0.00000000
V        3.00550000       0.70231000       2.68818000       0.00000000       0.00000000       0.00000000
V        2.84466000       2.75388000       0.92386000       0.00000000       0.00000000       0.00000000
V        0.87107000       2.80730000       2.80605000       0.00000000       0.00000000       0.00000000
V        3.84071000       3.57914000       3.66748000      -0.00361200      -0.00578100       0.05965100
V        5.76106000       5.36870000       5.50122000       0.00361200       0.00578100      -0.05965100
6
Lattice="-0.1782032 3.825037604 3.778352412 4.090648048 -0.384953521 3.542617783 3.76896661 3.71818602 0.013984015" Properties=species:S:1:pos:R:3:forces:R:3 batch_id=T generation=8 composition=V6 config_type=C15_aa source_path=V-Cr-Ti-W-Zr/Fixed_Engrads/vcrtiwzr_fin_engrads/job_gen_6-2024-12-23/V/V6_C15_idx_3066 temperature=T date_processed=2025-01-03T17:40:30.389023 structure_type=T structure_index=3066 adversarial_step=T structure_id=8375 energy=-48.90075607299805 stress="0.18754341818442297 -0.01709178603937347 -0.0011260805934736056 -0.01709178603937347 0.18369587733282697 0.00043664973693766687 -0.0011260805934736056 0.00043664973693766687 0.1699634712332959" calculation_info="_JSON {\"calculation_id\": 8375, \"calculator\": \"vasp\", \"calculation_source_path\": \"\", \"error\": null, \"status\": \"completed\", \"gpu_count\": null, \"parameters\": {}, \"date_started\": null, \"gpu_memory_mb\": null, \"model_version\": null, \"date_completed\": null, \"runtime_seconds\": null}" parent_id=8375 step=0 variance=0.35821691155433655 loss=0.35821691155433655 pbc="T T T"
V        0.96018000       0.89478000       0.91687000      -0.00000717       0.00001710       0.00001187
V        3.00550000       0.70231000       2.68818000       0.00000750      -0.00001546       0.00000559
V        2.84466000       2.75388000       0.92386000       0.00000245      -0.00000943       0.00001035
V        0.87107000       2.80730000       2.80605000       0.00001460       0.00000549      -0.00000720
V        3.84071000       3.57914000       3.66748000      -0.00504377      -0.00745695       0.06174119
V        5.76106000       5.36870000       5.50122000       0.00502636       0.00745927      -0.06176177
6
Lattice="-0.1782032 3.825037604 3.778352412 4.090648048 -0.384953521 3.542617783 3.76896661 3.71818602 0.013984015" Properties=species:S:1:pos:R:3:forces:R:3 batch_id=T generation=8 composition=V6 config_type=C15_aa source_path=V-Cr-Ti-W-Zr/Fixed_Engrads/vcrtiwzr_fin_engrads/job_gen_6-2024-12-23/V/V6_C15_idx_3066 temperature=T date_processed=2025-01-03T17:40:30.389023 structure_type=T structure_index=3066 adversarial_step=T structure_id=8375 energy=-48.90075836181641 stress="0.18754341818442297 -0.01709178603937347 -0.0011260805934736056 -0.01709178603937347 0.18369587733282697 0.00043664973693766687 -0.0011260805934736056 0.00043664973693766687 0.1699634712332959" calculation_info="_JSON {\"calculation_id\": 8375, \"calculator\": \"vasp\", \"calculation_source_path\": \"\", \"error\": null, \"status\": \"completed\", \"gpu_count\": null, \"parameters\": {}, \"date_started\": null, \"gpu_memory_mb\": null, \"model_version\": null, \"date_completed\": null, \"runtime_seconds\": null}" parent_id=8375 step=1 variance=0.35542401671409607 loss=0.35542401671409607 pbc="T T T"
V        0.97018000       0.90478000       0.92687000      -0.00000795       0.00001673       0.00000969
V        3.01550000       0.71231000       2.69818000       0.00000784      -0.00001541       0.00000605
V        2.85466000       2.76388000       0.93386000       0.00000117      -0.00000996       0.00000965
V        0.88107000       2.81730000       2.81605000       0.00001518       0.00000504      -0.00000858
V        3.85071000       3.58914000       3.67748000      -0.00504350      -0.00745660       0.06174257
V        5.77106000       5.37870000       5.51122000       0.00502717       0.00746024      -0.06175934
6
Lattice="-0.1782032 3.825037604 3.778352412 4.090648048 -0.384953521 3.542617783 3.76896661 3.71818602 0.013984015" Properties=species:S:1:pos:R:3:forces:R:3 batch_id=T generation=8 composition=V6 config_type=C15_aa source_path=V-Cr-Ti-W-Zr/Fixed_Engrads/vcrtiwzr_fin_engrads/job_gen_6-2024-12-23/V/V6_C15_idx_3066 temperature=T date_processed=2025-01-03T17:40:30.389023 structure_type=T structure_index=3066 adversarial_step=T structure_id=8375 energy=-48.90075759887695 stress="0.18754341818442297 -0.01709178603937347 -0.0011260805934736056 -0.01709178603937347 0.18369587733282697 0.00043664973693766687 -0.0011260805934736056 0.00043664973693766687 0.1699634712332959" calculation_info="_JSON {\"calculation_id\": 8375, \"calculator\": \"vasp\", \"calculation_source_path\": \"\", \"error\": null, \"status\": \"completed\", \"gpu_count\": null, \"parameters\": {}, \"date_started\": null, \"gpu_memory_mb\": null, \"model_version\": null, \"date_completed\": null, \"runtime_seconds\": null}" parent_id=8375 step=2 variance=0.3570566177368164 loss=0.3570566177368164 pbc="T T T"
V        0.98019111       0.91479278       0.93687380      -0.00002452      -0.00000465       0.00005003
V        3.02550418       0.72231753       2.70819354       0.00002024      -0.00000746      -0.00001473
V        2.86466793       2.77388445       0.94386745       0.00002048       0.00001973       0.00002780
V        0.89107741       2.82730616       2.82605727       0.00001557       0.00001263      -0.00000307
V        3.86072352       3.59915356       3.68749331      -0.00505288      -0.00746805       0.06172039
V        5.78107048       5.38871354       5.52123245       0.00502103       0.00744778      -0.06178043
6
Lattice="-0.1782032 3.825037604 3.778352412 4.090648048 -0.384953521 3.542617783 3.76896661 3.71818602 0.013984015" Properties=species:S:1:pos:R:3:forces:R:3 batch_id=T generation=8 composition=V6 config_type=C15_aa source_path=V-Cr-Ti-W-Zr/Fixed_Engrads/vcrtiwzr_fin_engrads/job_gen_6-2024-12-23/V/V6_C15_idx_3066 temperature=T date_processed=2025-01-03T17:40:30.389023 structure_type=T structure_index=3066 adversarial_step=T structure_id=8375 energy=-48.900753021240234 stress="0.18754341818442297 -0.01709178603937347 -0.0011260805934736056 -0.01709178603937347 0.18369587733282697 0.00043664973693766687 -0.0011260805934736056 0.00043664973693766687 0.1699634712332959" calculation_info="_JSON {\"calculation_id\": 8375, \"calculator\": \"vasp\", \"calculation_source_path\": \"\", \"error\": null, \"status\": \"completed\", \"gpu_count\": null, \"parameters\": {}, \"date_started\": null, \"gpu_memory_mb\": null, \"model_version\": null, \"date_completed\": null, \"runtime_seconds\": null}" parent_id=8375 step=3 variance=0.4181530177593231 loss=0.4181530177593231 pbc="T T T"
V        0.98976414       0.92462648       0.94689728       0.00217288       0.00124720      -0.00227170
V        3.03552346       0.73206575       2.71633681       0.00033485      -0.00044213       0.00450009
V        2.87465768       2.78391457       0.95384828      -0.00162739      -0.00180188      -0.00201368
V        0.90096819       2.83720328       2.83525311      -0.00048667       0.00044397       0.00081503
V        3.87067504       3.60899622       3.69740537      -0.00527023      -0.00722079       0.06118983
V        5.79095782       5.39849313       5.53110769       0.00487658       0.00777361      -0.06221955
6
Lattice="-0.1782032 3.825037604 3.778352412 4.090648048 -0.384953521 3.542617783 3.76896661 3.71818602 0.013984015" Properties=species:S:1:pos:R:3:forces:R:3 batch_id=T generation=8 composition=V6 config_type=C15_aa source_path=V-Cr-Ti-W-Zr/Fixed_Engrads/vcrtiwzr_fin_engrads/job_gen_6-2024-12-23/V/V6_C15_idx_3066 temperature=T date_processed=2025-01-03T17:40:30.389023 structure_type=T structure_index=3066 adversarial_step=T structure_id=8375 energy=-48.9007453918457 stress="0.18754341818442297 -0.01709178603937347 -0.0011260805934736056 -0.01709178603937347 0.18369587733282697 0.00043664973693766687 -0.0011260805934736056 0.00043664973693766687 0.1699634712332959" calculation_info="_JSON {\"calculation_id\": 8375, \"calculator\": \"vasp\", \"calculation_source_path\": \"\", \"error\": null, \"status\": \"completed\", \"gpu_count\": null, \"parameters\": {}, \"date_started\": null, \"gpu_memory_mb\": null, \"model_version\": null, \"date_completed\": null, \"runtime_seconds\": null}" parent_id=8375 step=4 variance=0.56100994348526 loss=0.56100994348526 pbc="T T T"
V        0.99821018       0.93310438       0.95511211       0.00089071      -0.00022982      -0.00353059
V        3.04370935       0.74008913       2.72283862       0.00101370      -0.00098365       0.00825359
V        2.88244646       2.79177409       0.96203940      -0.00026716      -0.00088078      -0.00315855
V        0.90891977       2.84533338       2.84265068       0.00009986       0.00034805       0.00101724
V        3.87910744       3.61696738       3.70562164      -0.00603282      -0.00664618       0.06036129
V        5.79925524       5.40639918       5.53928233       0.00429569       0.00839236      -0.06294302
6
Lattice="-0.1782032 3.825037604 3.778352412 4.090648048 -0.384953521 3.542617783 3.76896661 3.71818602 0.013984015" Properties=species:S:1:pos:R:3:forces:R:3 batch_id=T generation=8 composition=V6 config_type=C15_aa source_path=V-Cr-Ti-W-Zr/Fixed_Engrads/vcrtiwzr_fin_engrads/job_gen_6-2024-12-23/V/V6_C15_idx_3066 temperature=T date_processed=2025-01-03T17:40:30.389023 structure_type=T structure_index=3066 adversarial_step=T structure_id=8375 energy=-48.90072479248047 stress="0.18754341818442297 -0.01709178603937347 -0.0011260805934736056 -0.01709178603937347 0.18369587733282697 0.00043664973693766687 -0.0011260805934736056 0.00043664973693766687 0.1699634712332959" calculation_info="_JSON {\"calculation_id\": 8375, \"calculator\": \"vasp\", \"calculation_source_path\": \"\", \"error\": null, \"status\": \"completed\", \"gpu_count\": null, \"parameters\": {}, \"date_started\": null, \"gpu_memory_mb\": null, \"model_version\": null, \"date_completed\": null, \"runtime_seconds\": null}" parent_id=8375 step=5 variance=0.6397828459739685 loss=0.6397828459739685 pbc="T T T"
V        1.00582342       0.94062235       0.96198238      -0.00297887      -0.00385809      -0.00311090
V        3.05059443       0.74689910       2.72835291       0.00183512      -0.00143593       0.01112853
V        2.88859249       2.79809248       0.96886725       0.00369339       0.00220316      -0.00257176
V        0.91565227       2.85222299       2.84902508       0.00074274       0.00008195       0.00039597
V        3.88631733       3.62368579       3.71283606      -0.00691191      -0.00603774       0.05870067
V        5.80631513       5.41305154       5.54645550       0.00361956       0.00904671      -0.06454252
6
Lattice="-0.1782032 3.825037604 3.778352412 4.090648048 -0.384953521 3.542617783 3.76896661 3.71818602 0.013984015" Properties=species:S:1:pos:R:3:forces:R:3 batch_id=T generation=8 composition=V6 config_type=C15_aa source_path=V-Cr-Ti-W-Zr/Fixed_Engrads/vcrtiwzr_fin_engrads/job_gen_6-2024-12-23/V/V6_C15_idx_3066 temperature=T date_processed=2025-01-03T17:40:30.389023 structure_type=T structure_index=3066 adversarial_step=T structure_id=8375 energy=-48.90069732666016 stress="0.18754341818442297 -0.01709178603937347 -0.0011260805934736056 -0.01709178603937347 0.18369587733282697 0.00043664973693766687 -0.0011260805934736056 0.00043664973693766687 0.1699634712332959" calculation_info="_JSON {\"calculation_id\": 8375, \"calculator\": \"vasp\", \"calculation_source_path\": \"\", \"error\": null, \"status\": \"completed\", \"gpu_count\": null, \"parameters\": {}, \"date_started\": null, \"gpu_memory_mb\": null, \"model_version\": null, \"date_completed\": null, \"runtime_seconds\": null}" parent_id=8375 step=6 variance=0.6260570883750916 loss=0.6260570883750916 pbc="T T T"
V        1.01235858       0.94702710       0.96791430      -0.00611097      -0.00669843      -0.00287559
V        3.05650965       0.75278666       2.73308936       0.00257691      -0.00190926       0.01364232
V        2.89393335       2.80350682       0.97475563       0.00684120       0.00477942      -0.00213290
V        0.92147113       2.85817520       2.85448108       0.00121084      -0.00020084       0.00003052
V        3.89250320       3.62949116       3.71905873      -0.00762909      -0.00555573       0.05726179
V        5.81234069       5.41877969       5.55263135       0.00311108       0.00958484      -0.06592619
6
Lattice="-0.1782032 3.825037604 3.778352412 4.090648048 -0.384953521 3.542617783 3.76896661 3.71818602 0.013984015" Properties=species:S:1:pos:R:3:forces:R:3 batch_id=T generation=8 composition=V6 config_type=C15_aa source_path=V-Cr-Ti-W-Zr/Fixed_Engrads/vcrtiwzr_fin_engrads/job_gen_6-2024-12-23/V/V6_C15_idx_3066 temperature=T date_processed=2025-01-03T17:40:30.389023 structure_type=T structure_index=3066 adversarial_step=T structure_id=8375 energy=-48.90066833496094 stress="0.18754341818442297 -0.01709178603937347 -0.0011260805934736056 -0.01709178603937347 0.18369587733282697 0.00043664973693766687 -0.0011260805934736056 0.00043664973693766687 0.1699634712332959" calculation_info="_JSON {\"calculation_id\": 8375, \"calculator\": \"vasp\", \"calculation_source_path\": \"\", \"error\": null, \"status\": \"completed\", \"gpu_count\": null, \"parameters\": {}, \"date_started\": null, \"gpu_memory_mb\": null, \"model_version\": null, \"date_completed\": null, \"runtime_seconds\": null}" parent_id=8375 step=7 variance=0.6211485266685486 loss=0.6211485266685486 pbc="T T T"
V        1.01797825       0.95253176       0.97312224      -0.00830960      -0.00867928      -0.00301041
V        3.06165911       0.75794689       2.73717590       0.00321865      -0.00239504       0.01598819
V        2.89866907       2.80824404       0.97992571       0.00906879       0.00670011      -0.00205491
V        0.92658133       2.86337346       2.85916505       0.00148003      -0.00042947       0.00003020
V        3.89788168       3.63457964       3.72447201      -0.00820997      -0.00520273       0.05608208
V        5.81754700       5.42378031       5.55798644       0.00275209       0.01000640      -0.06703515
6
Lattice="-0.1782032 3.825037604 3.778352412 4.090648048 -0.384953521 3.542617783 3.76896661 3.71818602 0.013984015" Properties=species:S:1:pos:R:3:forces:R:3 batch_id=T generation=8 composition=V6 config_type=C15_aa source_path=V-Cr-Ti-W-Zr/Fixed_Engrads/vcrtiwzr_fin_engrads/job_gen_6-2024-12-23/V/V6_C15_idx_3066 temperature=T date_processed=2025-01-03T17:40:30.389023 structure_type=T structure_index=3066 adversarial_step=T structure_id=8375 energy=-48.900640869140624 stress="0.18754341818442297 -0.01709178603937347 -0.0011260805934736056 -0.01709178603937347 0.18369587733282697 0.00043664973693766687 -0.0011260805934736056 0.00043664973693766687 0.1699634712332959" calculation_info="_JSON {\"calculation_id\": 8375, \"calculator\": \"vasp\", \"calculation_source_path\": \"\", \"error\": null, \"status\": \"completed\", \"gpu_count\": null, \"parameters\": {}, \"date_started\": null, \"gpu_memory_mb\": null, \"model_version\": null, \"date_completed\": null, \"runtime_seconds\": null}" parent_id=8375 step=8 variance=0.6228637099266052 loss=0.6228637099266052 pbc="T T T"
V        1.02286075       0.95731400       0.97773705      -0.00979892      -0.01001117      -0.00341542
V        3.06618569       0.76251226       2.74073633       0.00378771      -0.00288799       0.01818340
V        2.90290239       2.81243109       0.98450848       0.01060191       0.00811277      -0.00225397
V        0.93110907       2.86795399       2.86321887       0.00161008      -0.00060486       0.00031819
V        3.90261340       3.63908262       3.72922792      -0.00870079      -0.00495041       0.05509199
V        5.82209418       5.42818413       5.56267596       0.00250002       0.01034165      -0.06792424
6
Lattice="-0.1782032 3.825037604 3.778352412 4.090648048 -0.384953521 3.542617783 3.76896661 3.71818602 0.013984015" Properties=species:S:1:pos:R:3:forces:R:3 batch_id=T generation=8 composition=V6 config_type=C15_aa source_path=V-Cr-Ti-W-Zr/Fixed_Engrads/vcrtiwzr_fin_engrads/job_gen_6-2024-12-23/V/V6_C15_idx_3066 temperature=T date_processed=2025-01-03T17:40:30.389023 structure_type=T structure_index=3066 adversarial_step=T structure_id=8375 energy=-48.900613403320314 stress="0.18754341818442297 -0.01709178603937347 -0.0011260805934736056 -0.01709178603937347 0.18369587733282697 0.00043664973693766687 -0.0011260805934736056 0.00043664973693766687 0.1699634712332959" calculation_info="_JSON {\"calculation_id\": 8375, \"calculator\": \"vasp\", \"calculation_source_path\": \"\", \"error\": null, \"status\": \"completed\", \"gpu_count\": null, \"parameters\": {}, \"date_started\": null, \"gpu_memory_mb\": null, \"model_version\": null, \"date_completed\": null, \"runtime_seconds\": null}" parent_id=8375 step=9 variance=0.6275248527526855 loss=0.6275248527526855 pbc="T T T"
V        1.02713805       0.96150008       0.98185389      -0.01074973      -0.01083978      -0.00400909
V        3.07019356       0.76657895       2.74386292       0.00429810      -0.00338436       0.02023258
V        2.90671118       2.81615867       0.98859812       0.01160254       0.00913177      -0.00266601
V        0.93514321       2.87201842       2.86675448       0.00165607      -0.00074791       0.00080862
V        3.90681671       3.64309697       3.73343610      -0.00913610      -0.00477108       0.05425305
V        5.82609569       5.43208640       5.56680676       0.00232909       0.01061133      -0.06861909
6
Lattice="-0.1782032 3.825037604 3.778352412 4.090648048 -0.384953521 3.542617783 3.76896661 3.71818602 0.013984015" Properties=species:S:1:pos:R:3:forces:R:3 batch_id=T generation=8 composition=V6 config_type=C15_aa source_path=V-Cr-Ti-W-Zr/Fixed_Engrads/vcrtiwzr_fin_engrads/job_gen_6-2024-12-23/V/V6_C15_idx_3066 temperature=T date_processed=2025-01-03T17:40:30.389023 structure_type=T structure_index=3066 adversarial_step=T structure_id=8375 energy=-48.900587463378905 stress="0.18754341818442297 -0.01709178603937347 -0.0011260805934736056 -0.01709178603937347 0.18369587733282697 0.00043664973693766687 -0.0011260805934736056 0.00043664973693766687 0.1699634712332959" calculation_info="_JSON {\"calculation_id\": 8375, \"calculator\": \"vasp\", \"calculation_source_path\": \"\", \"error\": null, \"status\": \"completed\", \"gpu_count\": null, \"parameters\": {}, \"date_started\": null, \"gpu_memory_mb\": null, \"model_version\": null, \"date_completed\": null, \"runtime_seconds\": null}" parent_id=8375 step=10 variance=0.6335324048995972 loss=0.6335324048995972 pbc="T T T"
V        1.03090851       0.96518411       0.98554531      -0.01128299      -0.01127186      -0.00475231
V        3.07376195       0.77022048       2.74662514       0.00477226      -0.00388481       0.02215442
V        2.91015676       2.81949565       0.99226710       0.01218025       0.00983572      -0.00324271
V        0.93875166       2.87564520       2.86985793       0.00166171      -0.00087254       0.00143832
V        3.91057976       3.64669421       3.73718091      -0.00954155      -0.00464754       0.05354692
V        5.82963820       5.43555940       5.57046138       0.00221043       0.01084110      -0.06914465
6
Lattice="-0.1782032 3.825037604 3.778352412 4.090648048 -0.384953521 3.542617783 3.76896661 3.71818602 0.013984015" Properties=species:S:1:pos:R:3:forces:R:3 batch_id=T generation=8 composition=V6 config_type=C15_aa source_path=V-Cr-Ti-W-Zr/Fixed_Engrads/vcrtiwzr_fin_engrads/job_gen_6-2024-12-23/V/V6_C15_idx_3066 temperature=T date_processed=2025-01-03T17:40:30.389023 structure_type=T structure_index=3066 adversarial_step=T structure_id=8375 energy=-48.90056533813477 stress="0.18754341818442297 -0.01709178603937347 -0.0011260805934736056 -0.01709178603937347 0.18369587733282697 0.00043664973693766687 -0.0011260805934736056 0.00043664973693766687 0.1699634712332959" calculation_info="_JSON {\"calculation_id\": 8375, \"calculator\": \"vasp\", \"calculation_source_path\": \"\", \"error\": null, \"status\": \"completed\", \"gpu_count\": null, \"parameters\": {}, \"date_started\": null, \"gpu_memory_mb\": null, \"model_version\": null, \"date_completed\": null, \"runtime_seconds\": null}" parent_id=8375 step=11 variance=0.639985978603363 loss=0.639985978603363 pbc="T T T"
V        1.03424808       0.96843918       0.98886816      -0.01149117      -0.01138678      -0.00560293
V        3.07695271       0.77349405       2.74907731       0.00520802      -0.00438545       0.02394977
V        2.91328628       2.82249548       0.99557176       0.01242533       0.01029093      -0.00395189
V        0.94198965       2.87889559       2.87259408       0.00164741      -0.00098604       0.00216500
V        3.91396745       3.64993297       3.74052730      -0.00992607      -0.00456816       0.05295096
V        5.83278594       5.43866009       5.57370504       0.00213651       0.01103552      -0.06951088
6
Lattice="-0.1782032 3.825037604 3.778352412 4.090648048 -0.384953521 3.542617783 3.76896661 3.71818602 0.013984015" Properties=species:S:1:pos:R:3:forces:R:3 batch_id=T generation=8 composition=V6 config_type=C15_aa source_path=V-Cr-Ti-W-Zr/Fixed_Engrads/vcrtiwzr_fin_engrads/job_gen_6-2024-12-23/V/V6_C15_idx_3066 temperature=T date_processed=2025-01-03T17:40:30.389023 structure_type=T structure_index=3066 adversarial_step=T structure_id=8375 energy=-48.90054092407227 stress="0.18754341818442297 -0.01709178603937347 -0.0011260805934736056 -0.01709178603937347 0.18369587733282697 0.00043664973693766687 -0.0011260805934736056 0.00043664973693766687 0.1699634712332959" calculation_info="_JSON {\"calculation_id\": 8375, \"calculator\": \"vasp\", \"calculation_source_path\": \"\", \"error\": null, \"status\": \"completed\", \"gpu_count\": null, \"parameters\": {}, \"date_started\": null, \"gpu_memory_mb\": null, \"model_version\": null, \"date_completed\": null, \"runtime_seconds\": null}" parent_id=8375 step=12 variance=0.6462605595588684 loss=0.6462605595588684 pbc="T T T"
V        1.03721854       0.97132573       0.99186801      -0.01144800      -0.01125257      -0.00652456
V        3.07981608       0.77644603       2.75126472       0.00561488      -0.00488140       0.02562214
V        2.91613775       2.82520091       0.99855731       0.01240001       0.01054323      -0.00474760
V        0.94490270       2.88181881       2.87501622       0.00162666      -0.00109301       0.00295905
V        3.91703145       3.65286002       3.74352937      -0.01029804      -0.00452515       0.05244245
V        5.83559046       5.44143628       5.57659088       0.00210453       0.01120891      -0.06975146
6
Lattice="-0.1782032 3.825037604 3.778352412 4.090648048 -0.384953521 3.542617783 3.76896661 3.71818602 0.013984015" Properties=species:S:1:pos:R:3:forces:R:3 batch_id=T generation=8 composition=V6 config_type=C15_aa source_path=V-Cr-Ti-W-Zr/Fixed_Engrads/vcrtiwzr_fin_engrads/job_gen_6-2024-12-23/V/V6_C15_idx_3066 temperature=T date_processed=2025-01-03T17:40:30.389023 structure_type=T structure_index=3066 adversarial_step=T structure_id=8375 energy=-48.90052490234375 stress="0.18754341818442297 -0.01709178603937347 -0.0011260805934736056 -0.01709178603937347 0.18369587733282697 0.00043664973693766687 -0.0011260805934736056 0.00043664973693766687 0.1699634712332959" calculation_info="_JSON {\"calculation_id\": 8375, \"calculator\": \"vasp\", \"calculation_source_path\": \"\", \"error\": null, \"status\": \"completed\", \"gpu_count\": null, \"parameters\": {}, \"date_started\": null, \"gpu_memory_mb\": null, \"model_version\": null, \"date_completed\": null, \"runtime_seconds\": null}" parent_id=8375 step=13 variance=0.6518539190292358 loss=0.6518539190292358 pbc="T T T"
V        1.03987089       0.97389446       0.99458198      -0.01122758      -0.01094179      -0.00748949
V        3.08239301       0.77911426       2.75322466       0.00599541      -0.00536539       0.02716953
V        2.91874134       2.82764685       1.00126055       0.01217554       0.01064262      -0.00560250
V        0.94752891       2.88445520       2.87716958       0.00160865      -0.00119494       0.00378695
V        3.91981009       3.65551279       3.74623168      -0.01065316      -0.00450781       0.05200944
V        5.83809628       5.44392614       5.57916472       0.00210116       0.01136728      -0.06987387
6
Lattice="-0.1782032 3.825037604 3.778352412 4.090648048 -0.384953521 3.542617783 3.76896661 3.71818602 0.013984015" Properties=species:S:1:pos:R:3:forces:R:3 batch_id=T generation=8 composition=V6 config_type=C15_aa source_path=V-Cr-Ti-W-Zr/Fixed_Engrads/vcrtiwzr_fin_engrads/job_gen_6-2024-12-23/V/V6_C15_idx_3066 temperature=T date_processed=2025-01-03T17:40:30.389023 structure_type=T structure_index=3066 adversarial_step=T structure_id=8375 energy=-48.90051040649414 stress="0.18754341818442297 -0.01709178603937347 -0.0011260805934736056 -0.01709178603937347 0.18369587733282697 0.00043664973693766687 -0.0011260805934736056 0.00043664973693766687 0.1699634712332959" calculation_info="_JSON {\"calculation_id\": 8375, \"calculator\": \"vasp\", \"calculation_source_path\": \"\", \"error\": null, \"status\": \"completed\", \"gpu_count\": null, \"parameters\": {}, \"date_started\": null, \"gpu_memory_mb\": null, \"model_version\": null, \"date_completed\": null, \"runtime_seconds\": null}" parent_id=8375 step=14 variance=0.6564616560935974 loss=0.6564616560935974 pbc="T T T"
V        1.04224950       0.97618890       0.99704074      -0.01088604      -0.01050699      -0.00845127
V        3.08471750       0.78153015       2.75498780       0.00635143      -0.00583466       0.02859498
V        2.92112038       2.82986138       1.00371176       0.01181042       0.01063252      -0.00647358
V        0.94990009       2.88683829       2.87908996       0.00159625      -0.00129401       0.00462666
V        3.92233896       3.65792350       3.74867445      -0.01100177      -0.00451329       0.05161687
V        5.84033535       5.44616203       5.58146480       0.00212963       0.01151644      -0.06991366
6
Lattice="-0.1782032 3.825037604 3.778352412 4.090648048 -0.384953521 3.542617783 3.76896661 3.71818602 0.013984015" Properties=species:S:1:pos:R:3:forces:R:3 batch_id=T generation=8 composition=V6 config_type=C15_aa source_path=V-Cr-Ti-W-Zr/Fixed_Engrads/vcrtiwzr_fin_engrads/job_gen_6-2024-12-23/V/V6_C15_idx_3066 temperature=T date_processed=2025-01-03T17:40:30.389023 structure_type=T structure_index=3066 adversarial_step=T structure_id=8375 energy=-48.90049514770508 stress="0.18754341818442297 -0.01709178603937347 -0.0011260805934736056 -0.01709178603937347 0.18369587733282697 0.00043664973693766687 -0.0011260805934736056 0.00043664973693766687 0.1699634712332959" calculation_info="_JSON {\"calculation_id\": 8375, \"calculator\": \"vasp\", \"calculation_source_path\": \"\", \"error\": null, \"status\": \"completed\", \"gpu_count\": null, \"parameters\": {}, \"date_started\": null, \"gpu_memory_mb\": null, \"model_version\": null, \"date_completed\": null, \"runtime_seconds\": null}" parent_id=8375 step=15 variance=0.6599556803703308 loss=0.6599556803703308 pbc="T T T"
V        1.04439180       0.97824648       0.99926987      -0.01049236      -0.01001468      -0.00939532
V        3.08681843       0.78372050       2.75658090       0.00668496      -0.00628135       0.02989220
V        2.92329399       2.83186788       1.00593652       0.01136660       0.01055988      -0.00733409
V        0.95204378       2.88899622       2.88080897       0.00158977      -0.00138714       0.00545989
V        3.92464580       3.66011916       3.75089022      -0.01133771      -0.00453489       0.05126050
V        5.84233585       5.44817040       5.58352500       0.00218878       0.01165811      -0.06988321
6