6
Lattice="-0.043394112 3.858732184 4.011499653 3.899091738 -0.059518916 4.054490961 3.926558929 4.049953748 0.402390163" Properties=species:S:1:pos:R:3:forces:R:3 batch_id=T generation=6 composition=V6 config_type=C15 source_path=V-Cr-Ti-W-Zr/Fixed_Engrads/vcrtiwzr_fin_engrads/job_gen_6-2024-12-23/V/V6_C15_idx_3104 temperature=T date_processed=2025-01-03T17:40:32.296752 structure_type=T structure_index=3104 adversarial_step=T structure_id=8413 energy=-48.20993 stress="0.18898197369077477 0.001184189043435579 0.001494641707357012 0.001184189043435579 0.18958122722345996 0.0009033086497525803 0.001494641707357012 0.0009033086497525803 0.18851303662712893" calculation_info="_JSON {\"calculation_id\": 8413, \"calculator\": \"vasp\", \"calculation_source_path\": \"\", \"error\": null, \"status\": \"completed\", \"gpu_count\": null, \"parameters\": {}, \"date_started\": null, \"gpu_memory_mb\": null, \"model_version\": null, \"date_completed\": null, \"runtime_seconds\": null}" pbc="T T T"
V        0.97278000       0.98115000       1.05855000       0.00000000       0.00000000       0.00000000
V        2.92233000       0.95139000       3.08579000       0.00000000       0.00000000       0.00000000
V        2.93606000       3.00612000       1.25974000       0.00000000       0.00000000       0.00000000
V        0.95109000       2.91051000       3.06430000       0.00000000       0.00000000       0.00000000
V        3.89113000       3.92458000       4.23419000      -0.00432100       0.01185200      -0.00937500
V        5.83669000       5.88688000       6.35129000       0.00432100      -0.01185200       0.00937500
6
Lattice="-0.043394112 3.858732184 4.011499653 3.899091738 -0.059518916 4.054490961 3.926558929 4.049953748 0.402390163" Properties=species:S:1:pos:R:3:forces:R:3 batch_id=T generation=8 composition=V6 config_type=C15_aa source_path=V-Cr-Ti-W-Zr/Fixed_Engrads/vcrtiwzr_fin_engrads/job_gen_6-2024-12-23/V/V6_C15_idx_3104 temperature=T date_processed=2025-01-03T17:40:32.296752 structure_type=T structure_index=3104 adversarial_step=T structure_id=8413 energy=-48.31973648071289 stress="0.18898197369077477 0.001184189043435579 0.001494641707357012 0.001184189043435579 0.18958122722345996 0.0009033086497525803 0.001494641707357012 0.0009033086497525803 0.18851303662712893" calculation_info="_JSON {\"calculation_id\": 8413, \"calculator\": \"vasp\", \"calculation_source_path\": \"\", \"error\": null, \"status\": \"completed\", \"gpu_count\": null, \"parameters\": {}, \"date_started\": null, \"gpu_memory_mb\": null, \"model_version\": null, \"date_completed\": null, \"runtime_seconds\": null}" parent_id=8413 step=0 variance=0.4844330847263336 loss=0.4844330847263336 pbc="T T T"
V        0.97278000       0.98115000       1.05855000       0.00001278      -0.00000533      -0.00000322
V        2.92233000       0.95139000       3.08579000      -0.00000713      -0.00000493       0.00001116
V        2.93606000       3.00612000       1.25974000       0.00000276       0.00000387       0.00001922
V        0.95109000       2.91051000       3.06430000      -0.00001517       0.00000329      -0.00001177
V        3.89113000       3.92458000       4.23419000      -0.01522973      -0.06740712      -0.03331428
V        5.83669000       5.88688000       6.35129000       0.01523640       0.06741015       0.03329887
6
Lattice="-0.043394112 3.858732184 4.011499653 3.899091738 -0.059518916 4.054490961 3.926558929 4.049953748 0.402390163" Properties=species:S:1:pos:R:3:forces:R:3 batch_id=T generation=8 composition=V6 config_type=C15_aa source_path=V-Cr-Ti-W-Zr/Fixed_Engrads/vcrtiwzr_fin_engrads/job_gen_6-2024-12-23/V/V6_C15_idx_3104 temperature=T date_processed=2025-01-03T17:40:32.296752 structure_type=T structure_index=3104 adversarial_step=T structure_id=8413 energy=-48.31586532592773 stress="0.18898197369077477 0.001184189043435579 0.001494641707357012 0.001184189043435579 0.18958122722345996 0.0009033086497525803 0.001494641707357012 0.0009033086497525803 0.18851303662712893" calculation_info="_JSON {\"calculation_id\": 8413, \"calculator\": \"vasp\", \"calculation_source_path\": \"\", \"error\": null, \"status\": \"completed\", \"gpu_count\": null, \"parameters\": {}, \"date_started\": null, \"gpu_memory_mb\": null, \"model_version\": null, \"date_completed\": null, \"runtime_seconds\": null}" parent_id=8413 step=1 variance=0.35306301712989807 loss=0.35306301712989807 pbc="T T T"
V        0.98278000       0.99115000       1.06855000      -0.05116499      -0.05324797      -0.05023171
V        2.93233000       0.96139000       3.09579000      -0.02907513      -0.01218116      -0.03315087
V        2.94606000       3.01612000       1.26974000      -0.03322298      -0.03449742      -0.01336326
V        0.96109000       2.92051000       3.07430000      -0.01367395      -0.02711847      -0.03453324
V        3.88113000       3.91458000       4.22419000       0.04642902      -0.00601053       0.03048836
V        5.82669000       5.87688000       6.34129000       0.08070804       0.13305561       0.10079066
6
Lattice="-0.043394112 3.858732184 4.011499653 3.899091738 -0.059518916 4.054490961 3.926558929 4.049953748 0.402390163" Properties=species:S:1:pos:R:3:forces:R:3 batch_id=T generation=8 composition=V6 config_type=C15_aa source_path=V-Cr-Ti-W-Zr/Fixed_Engrads/vcrtiwzr_fin_engrads/job_gen_6-2024-12-23/V/V6_C15_idx_3104 temperature=T date_processed=2025-01-03T17:40:32.296752 structure_type=T structure_index=3104 adversarial_step=T structure_id=8413 energy=-48.309024047851565 stress="0.18898197369077477 0.001184189043435579 0.001494641707357012 0.001184189043435579 0.18958122722345996 0.0009033086497525803 0.001494641707357012 0.0009033086497525803 0.18851303662712893" calculation_info="_JSON {\"calculation_id\": 8413, \"calculator\": \"vasp\", \"calculation_source_path\": \"\", \"error\": null, \"status\": \"completed\", \"gpu_count\": null, \"parameters\": {}, \"date_started\": null, \"gpu_memory_mb\": null, \"model_version\": null, \"date_completed\": null, \"runtime_seconds\": null}" parent_id=8413 step=2 variance=0.2882389724254608 loss=0.2882389724254608 pbc="T T T"
V        0.98945986       0.99783805       1.07521970      -0.08522929      -0.08871096      -0.08384198
V        2.93901864       0.96811814       3.10248535      -0.04770110      -0.01924606      -0.05447134
V        2.95275145       3.02280577       1.27646637      -0.05463998      -0.05676676      -0.02093305
V        0.96782933       2.92721451       3.08099767      -0.02165295      -0.04451539      -0.05667938
V        3.87445037       3.90788802       4.21750168       0.08405226       0.03128524       0.06949987
V        5.81999353       5.87015944       6.33460060       0.12517118       0.17795393       0.14642592
6
Lattice="-0.043394112 3.858732184 4.011499653 3.899091738 -0.059518916 4.054490961 3.926558929 4.049953748 0.402390163" Properties=species:S:1:pos:R:3:forces:R:3 batch_id=T generation=8 composition=V6 config_type=C15_aa source_path=V-Cr-Ti-W-Zr/Fixed_Engrads/vcrtiwzr_fin_engrads/job_gen_6-2024-12-23/V/V6_C15_idx_3104 temperature=T date_processed=2025-01-03T17:40:32.296752 structure_type=T structure_index=3104 adversarial_step=T structure_id=8413 energy=-48.301510620117185 stress="0.18898197369077477 0.001184189043435579 0.001494641707357012 0.001184189043435579 0.18958122722345996 0.0009033086497525803 0.001494641707357012 0.0009033086497525803 0.18851303662712893" calculation_info="_JSON {\"calculation_id\": 8413, \"calculator\": \"vasp\", \"calculation_source_path\": \"\", \"error\": null, \"status\": \"completed\", \"gpu_count\": null, \"parameters\": {}, \"date_started\": null, \"gpu_memory_mb\": null, \"model_version\": null, \"date_completed\": null, \"runtime_seconds\": null}" parent_id=8413 step=3 variance=0.2603178918361664 loss=0.2603178918361664 pbc="T T T"
V        0.99461193       1.00300121       1.08035818      -0.11137600      -0.11592140      -0.10982516
V        2.94418896       0.97332911       3.10766238      -0.06130952      -0.02356459      -0.07009281
V        2.95791524       3.02796370       1.28168084      -0.07037602      -0.07315106      -0.02540041
V        0.97306215       2.93239821       3.08616736      -0.02663512      -0.05718111      -0.07280438
V        3.86929424       3.90272626       4.21233422       0.11048361       0.05736797       0.09689843
V        5.81482125       5.86495770       6.32943873       0.15921305       0.21245022       0.18122429
6
Lattice="-0.043394112 3.858732184 4.011499653 3.899091738 -0.059518916 4.054490961 3.926558929 4.049953748 0.402390163" Properties=species:S:1:pos:R:3:forces:R:3 batch_id=T generation=8 composition=V6 config_type=C15_aa source_path=V-Cr-Ti-W-Zr/Fixed_Engrads/vcrtiwzr_fin_engrads/job_gen_6-2024-12-23/V/V6_C15_idx_3104 temperature=T date_processed=2025-01-03T17:40:32.296752 structure_type=T structure_index=3104 adversarial_step=T structure_id=8413 energy=-48.29397735595703 stress="0.18898197369077477 0.001184189043435579 0.001494641707357012 0.001184189043435579 0.18958122722345996 0.0009033086497525803 0.001494641707357012 0.0009033086497525803 0.18851303662712893" calculation_info="_JSON {\"calculation_id\": 8413, \"calculator\": \"vasp\", \"calculation_source_path\": \"\", \"error\": null, \"status\": \"completed\", \"gpu_count\": null, \"parameters\": {}, \"date_started\": null, \"gpu_memory_mb\": null, \"model_version\": null, \"date_completed\": null, \"runtime_seconds\": null}" parent_id=8413 step=4 variance=0.24882829189300537 loss=0.24882829189300537 pbc="T T T"
V        0.99882568       1.00722751       1.08455783      -0.13264918      -0.13804653      -0.13111910
V        2.94842538       0.97760257       3.11190505      -0.07179774      -0.02611342      -0.08216563
V        2.96213948       3.03218269       1.28596168      -0.08257653      -0.08587261      -0.02788005
V        0.97736387       2.93664460       3.09039633      -0.02969705      -0.06688662      -0.08518599
V        3.86507415       3.89850455       4.20810138       0.13013257       0.07667872       0.11724969
V        5.81058486       5.86069350       6.32521484       0.18658790       0.24024048       0.20910105
6
Lattice="-0.043394112 3.858732184 4.011499653 3.899091738 -0.059518916 4.054490961 3.926558929 4.049953748 0.402390163" Properties=species:S:1:pos:R:3:forces:R:3 batch_id=T generation=8 composition=V6 config_type=C15_aa source_path=V-Cr-Ti-W-Zr/Fixed_Engrads/vcrtiwzr_fin_engrads/job_gen_6-2024-12-23/V/V6_C15_idx_3104 temperature=T date_processed=2025-01-03T17:40:32.296752 structure_type=T structure_index=3104 adversarial_step=T structure_id=8413 energy=-48.28670120239258 stress="0.18898197369077477 0.001184189043435579 0.001494641707357012 0.001184189043435579 0.18958122722345996 0.0009033086497525803 0.001494641707357012 0.0009033086497525803 0.18851303662712893" calculation_info="_JSON {\"calculation_id\": 8413, \"calculator\": \"vasp\", \"calculation_source_path\": \"\", \"error\": null, \"status\": \"completed\", \"gpu_count\": null, \"parameters\": {}, \"date_started\": null, \"gpu_memory_mb\": null, \"model_version\": null, \"date_completed\": null, \"runtime_seconds\": null}" parent_id=8413 step=5 variance=0.24241702258586884 loss=0.24241702258586884 pbc="T T T"
V        1.00238275       1.01079784       1.08810095      -0.15051356      -0.15660827      -0.14912906
V        2.95200678       0.98121816       3.11549253      -0.08011828      -0.02744115      -0.09176642
V        2.96570602       3.03574439       1.28958688      -0.09233018      -0.09605394      -0.02899634
V        0.98101094       2.94023382       3.09396631      -0.03143141      -0.07454278      -0.09496591
V        3.86150962       3.89494056       4.20452344       0.14519326       0.09142090       0.13280696
V        5.80700399       5.85708665       6.32164726       0.20920019       0.26322526       0.23205075
6
Lattice="-0.043394112 3.858732184 4.011499653 3.899091738 -0.059518916 4.054490961 3.926558929 4.049953748 0.402390163" Properties=species:S:1:pos:R:3:forces:R:3 batch_id=T generation=8 composition=V6 config_type=C15_aa source_path=V-Cr-Ti-W-Zr/Fixed_Engrads/vcrtiwzr_fin_engrads/job_gen_6-2024-12-23/V/V6_C15_idx_3104 temperature=T date_processed=2025-01-03T17:40:32.296752 structure_type=T structure_index=3104 adversarial_step=T structure_id=8413 energy=-48.27979583740235 stress="0.18898197369077477 0.001184189043435579 0.001494641707357012 0.001184189043435579 0.18958122722345996 0.0009033086497525803 0.001494641707357012 0.0009033086497525803 0.18851303662712893" calculation_info="_JSON {\"calculation_id\": 8413, \"calculator\": \"vasp\", \"calculation_source_path\": \"\", \"error\": null, \"status\": \"completed\", \"gpu_count\": null, \"parameters\": {}, \"date_started\": null, \"gpu_memory_mb\": null, \"model_version\": null, \"date_completed\": null, \"runtime_seconds\": null}" parent_id=8413 step=6 variance=0.23800529539585114 loss=0.23800529539585114 pbc="T T T"
V        1.00544490       1.01387372       1.09114961      -0.16580561      -0.17248388      -0.16465387
V        2.95509410       0.98433721       3.11858572      -0.08683743      -0.02790299      -0.09953871
V        2.96877684       3.03881088       1.29271684      -0.10028051      -0.10436478      -0.02915805
V        0.98416336       2.94332728       3.09703972      -0.03222059      -0.08069294      -0.10283758
V        3.85843942       3.89187205       4.20143989       0.15694609       0.10288990       0.14491348
V        5.80391752       5.85397600       6.31857438       0.22819813       0.28255466       0.25127476
6
Lattice="-0.043394112 3.858732184 4.011499653 3.899091738 -0.059518916 4.054490961 3.926558929 4.049953748 0.402390163" Properties=species:S:1:pos:R:3:forces:R:3 batch_id=T generation=8 composition=V6 config_type=C15_aa source_path=V-Cr-Ti-W-Zr/Fixed_Engrads/vcrtiwzr_fin_engrads/job_gen_6-2024-12-23/V/V6_C15_idx_3104 temperature=T date_processed=2025-01-03T17:40:32.296752 structure_type=T structure_index=3104 adversarial_step=T structure_id=8413 energy=-48.273309326171876 stress="0.18898197369077477 0.001184189043435579 0.001494641707357012 0.001184189043435579 0.18958122722345996 0.0009033086497525803 0.001494641707357012 0.0009033086497525803 0.18851303662712893" calculation_info="_JSON {\"calculation_id\": 8413, \"calculator\": \"vasp\", \"calculation_source_path\": \"\", \"error\": null, \"status\": \"completed\", \"gpu_count\": null, \"parameters\": {}, \"date_started\": null, \"gpu_memory_mb\": null, \"model_version\": null, \"date_completed\": null, \"runtime_seconds\": null}" parent_id=8413 step=7 variance=0.23457086086273193 loss=0.23457086086273193 pbc="T T T"
V        1.00811607       1.01655885       1.09380778      -0.17907460      -0.18624952      -0.17821488
V        2.95779048       0.98706346       3.12128800      -0.09233627      -0.02773860      -0.10591495
V        2.97145599       3.04148614       1.29545492      -0.10684675      -0.11123725      -0.02864338
V        0.98692411       2.94602876       3.09972066      -0.03233566      -0.08569536      -0.10925819
V        3.85575987       3.88919477       4.19874700       0.16623738       0.11192231       0.15445173
V        5.80122181       5.85125775       6.31589230       0.24435592       0.29899848       0.26757970
6
Lattice="-0.043394112 3.858732184 4.011499653 3.899091738 -0.059518916 4.054490961 3.926558929 4.049953748 0.402390163" Properties=species:S:1:pos:R:3:forces:R:3 batch_id=T generation=8 composition=V6 config_type=C15_aa source_path=V-Cr-Ti-W-Zr/Fixed_Engrads/vcrtiwzr_fin_engrads/job_gen_6-2024-12-23/V/V6_C15_idx_3104 temperature=T date_processed=2025-01-03T17:40:32.296752 structure_type=T structure_index=3104 adversarial_step=T structure_id=8413 energy=-48.2672607421875 stress="0.18898197369077477 0.001184189043435579 0.001494641707357012 0.001184189043435579 0.18958122722345996 0.0009033086497525803 0.001494641707357012 0.0009033086497525803 0.18851303662712893" calculation_info="_JSON {\"calculation_id\": 8413, \"calculator\": \"vasp\", \"calculation_source_path\": \"\", \"error\": null, \"status\": \"completed\", \"gpu_count\": null, \"parameters\": {}, \"date_started\": null, \"gpu_memory_mb\": null, \"model_version\": null, \"date_completed\": null, \"runtime_seconds\": null}" parent_id=8413 step=8 variance=0.23170655965805054 loss=0.23170655965805054 pbc="T T T"
V        1.01046819       1.01892505       1.09614739      -0.19070277      -0.19829577      -0.19016798
V        2.96016765       0.98946887       3.12367105      -0.09687891      -0.02712772      -0.11119473
V        2.97381563       3.04384225       1.29787279      -0.11232316      -0.11697924      -0.02765692
V        0.98936491       2.94841015       3.10208138      -0.03196248      -0.08980355      -0.11453662
V        3.85339925       3.88683663       4.19637321       0.17364547       0.11910091       0.16201980
V        5.79884525       5.84886013       6.31352924       0.25822181       0.31310543       0.28153649
6
Lattice="-0.043394112 3.858732184 4.011499653 3.899091738 -0.059518916 4.054490961 3.926558929 4.049953748 0.402390163" Properties=species:S:1:pos:R:3:forces:R:3 batch_id=T generation=8 composition=V6 config_type=C15_aa source_path=V-Cr-Ti-W-Zr/Fixed_Engrads/vcrtiwzr_fin_engrads/job_gen_6-2024-12-23/V/V6_C15_idx_3104 temperature=T date_processed=2025-01-03T17:40:32.296752 structure_type=T structure_index=3104 adversarial_step=T structure_id=8413 energy=-48.26164779663086 stress="0.18898197369077477 0.001184189043435579 0.001494641707357012 0.001184189043435579 0.18958122722345996 0.0009033086497525803 0.001494641707357012 0.0009033086497525803 0.18851303662712893" calculation_info="_JSON {\"calculation_id\": 8413, \"calculator\": \"vasp\", \"calculation_source_path\": \"\", \"error\": null, \"status\": \"completed\", \"gpu_count\": null, \"parameters\": {}, \"date_started\": null, \"gpu_memory_mb\": null, \"model_version\": null, \"date_completed\": null, \"runtime_seconds\": null}" parent_id=8413 step=9 variance=0.22921054065227509 loss=0.22921054065227509 pbc="T T T"
V        1.01255382       1.02102483       1.09822099      -0.20095630      -0.20891550      -0.20076832
V        2.96227790       0.99160604       3.12578729      -0.10066118      -0.02620043      -0.11560080
V        2.97590838       3.04593185       1.30002289      -0.11693485      -0.12181912      -0.02634188
V        0.99153789       2.95052401       3.10417431      -0.03124494      -0.09320359      -0.11891465
V        3.85130506       3.88474506       4.19426615       0.17958966       0.12483597       0.16805670
V        5.79673522       5.84673048       6.31143266       0.27020770       0.32530284       0.29356891
6
Lattice="-0.043394112 3.858732184 4.011499653 3.899091738 -0.059518916 4.054490961 3.926558929 4.049953748 0.402390163" Properties=species:S:1:pos:R:3:forces:R:3 batch_id=T generation=8 composition=V6 config_type=C15_aa source_path=V-Cr-Ti-W-Zr/Fixed_Engrads/vcrtiwzr_fin_engrads/job_gen_6-2024-12-23/V/V6_C15_idx_3104 temperature=T date_processed=2025-01-03T17:40:32.296752 structure_type=T structure_index=3104 adversarial_step=T structure_id=8413 energy=-48.25645141601562 stress="0.18898197369077477 0.001184189043435579 0.001494641707357012 0.001184189043435579 0.18958122722345996 0.0009033086497525803 0.001494641707357012 0.0009033086497525803 0.18851303662712893" calculation_info="_JSON {\"calculation_id\": 8413, \"calculator\": \"vasp\", \"calculation_source_path\": \"\", \"error\": null, \"status\": \"completed\", \"gpu_count\": null, \"parameters\": {}, \"date_started\": null, \"gpu_memory_mb\": null, \"model_version\": null, \"date_completed\": null, \"runtime_seconds\": null}" parent_id=8413 step=10 variance=0.22697953879833221 loss=0.22697953879833221 pbc="T T T"
V        1.01441297       1.02289812       1.10006852      -0.21005654      -0.21832928      -0.21022515
V        2.96416115       0.99351505       3.12767659      -0.10382906      -0.02505437      -0.11930406
V        2.97777421       3.04779493       1.30194516      -0.12084299      -0.12592776      -0.02480910
V        0.99348297       2.95241034       3.10603962      -0.03028370      -0.09603383      -0.12256885
V        3.84943745       3.88287995       4.19238593       0.18438299       0.12944047       0.17289704
V        5.79485176       5.84482874       6.30956260       0.28062934       0.33590475       0.30401009
6
Lattice="-0.043394112 3.858732184 4.011499653 3.899091738 -0.059518916 4.054490961 3.926558929 4.049953748 0.402390163" Properties=species:S:1:pos:R:3:forces:R:3 batch_id=T generation=8 composition=V6 config_type=C15_aa source_path=V-Cr-Ti-W-Zr/Fixed_Engrads/vcrtiwzr_fin_engrads/job_gen_6-2024-12-23/V/V6_C15_idx_3104 temperature=T date_processed=2025-01-03T17:40:32.296752 structure_type=T structure_index=3104 adversarial_step=T structure_id=8413 energy=-48.2516586303711 stress="0.18898197369077477 0.001184189043435579 0.001494641707357012 0.001184189043435579 0.18958122722345996 0.0009033086497525803 0.001494641707357012 0.0009033086497525803 0.18851303662712893" calculation_info="_JSON {\"calculation_id\": 8413, \"calculator\": \"vasp\", \"calculation_source_path\": \"\", \"error\": null, \"status\": \"completed\", \"gpu_count\": null, \"parameters\": {}, \"date_started\": null, \"gpu_memory_mb\": null, \"model_version\": null, \"date_completed\": null, \"runtime_seconds\": null}" parent_id=8413 step=11 variance=0.22495563328266144 loss=0.22495563328266144 pbc="T T T"
V        1.01607701       1.02457621       1.10172136      -0.21816306      -0.22670951      -0.21869187
V        2.96584877       0.99522737       3.12937034      -0.10649753      -0.02376355      -0.12242699
V        2.97944456       3.04946296       1.30367095      -0.12417487      -0.12943275      -0.02314021
V        0.99523155       2.95410067       3.10770889      -0.02916116      -0.09840624      -0.12562892
V        3.84776505       3.88120992       4.19070133       0.18826266       0.13314922       0.17677724
V        5.79316358       5.84312358       6.30788768       0.28973395       0.34516290       0.31311074
6
Lattice="-0.043394112 3.858732184 4.011499653 3.899091738 -0.059518916 4.054490961 3.926558929 4.049953748 0.402390163" Properties=species:S:1:pos:R:3:forces:R:3 batch_id=T generation=8 composition=V6 config_type=C15_aa source_path=V-Cr-Ti-W-Zr/Fixed_Engrads/vcrtiwzr_fin_engrads/job_gen_6-2024-12-23/V/V6_C15_idx_3104 temperature=T date_processed=2025-01-03T17:40:32.296752 structure_type=T structure_index=3104 adversarial_step=T structure_id=8413 energy=-48.24723892211914 stress="0.18898197369077477 0.001184189043435579 0.001494641707357012 0.001184189043435579 0.18958122722345996 0.0009033086497525803 0.001494641707357012 0.0009033086497525803 0.18851303662712893" calculation_info="_JSON {\"calculation_id\": 8413, \"calculator\": \"vasp\", \"calculation_source_path\": \"\", \"error\": null, \"status\": \"completed\", \"gpu_count\": null, \"parameters\": {}, \"date_started\": null, \"gpu_memory_mb\": null, \"model_version\": null, \"date_completed\": null, \"runtime_seconds\": null}" parent_id=8413 step=12 variance=0.22310437262058258 loss=0.22310437262058258 pbc="T T T"
V        1.01757121       1.02608435       1.10320474      -0.22541134      -0.23419710      -0.22629520
V        2.96736602       0.99676841       3.13089376      -0.10875239      -0.02238382      -0.12507454
V        2.98094479       3.05096115       1.30522565      -0.12702899      -0.13243823      -0.02140164
V        0.99680890       2.95562024       3.10920748      -0.02793763      -0.10040163      -0.12820801
V        3.84626277       3.87970976       4.18918719       0.19140725       0.13614026       0.17989762
V        5.79164559       5.84158971       6.30638275       0.29772308       0.35328051       0.32108179
6
Lattice="-0.043394112 3.858732184 4.011499653 3.899091738 -0.059518916 4.054490961 3.926558929 4.049953748 0.402390163" Properties=species:S:1:pos:R:3:forces:R:3 batch_id=T generation=8 composition=V6 config_type=C15_aa source_path=V-Cr-Ti-W-Zr/Fixed_Engrads/vcrtiwzr_fin_engrads/job_gen_6-2024-12-23/V/V6_C15_idx_3104 temperature=T date_processed=2025-01-03T17:40:32.296752 structure_type=T structure_index=3104 adversarial_step=T structure_id=8413 energy=-48.24317626953125 stress="0.18898197369077477 0.001184189043435579 0.001494641707357012 0.001184189043435579 0.18958122722345996 0.0009033086497525803 0.001494641707357012 0.0009033086497525803 0.18851303662712893" calculation_info="_JSON {\"calculation_id\": 8413, \"calculator\": \"vasp\", \"calculation_source_path\": \"\", \"error\": null, \"status\": \"completed\", \"gpu_count\": null, \"parameters\": {}, \"date_started\": null, \"gpu_memory_mb\": null, \"model_version\": null, \"date_completed\": null, \"runtime_seconds\": null}" parent_id=8413 step=13 variance=0.2214016169309616 loss=0.2214016169309616 pbc="T T T"
V        1.01891633       1.02744326       1.10453934      -0.23191004      -0.24090414      -0.23314169
V        2.96873367       0.99815900       3.13226766      -0.11066721      -0.02096042      -0.12733194
V        2.98229569       3.05231038       1.30663007      -0.12948236      -0.13502695      -0.01963674
V        0.99823581       2.95698989       3.11055604      -0.02666312      -0.10208446      -0.13038450
V        3.84490986       3.87835874       4.18782272       0.19396262       0.13855305       0.18240753
V        5.79027698       5.84020641       6.30502709       0.30476004       0.36042300       0.32808739
6
Lattice="-0.043394112 3.858732184 4.011499653 3.899091738 -0.059518916 4.054490961 3.926558929 4.049953748 0.402390163" Properties=species:S:1:pos:R:3:forces:R:3 batch_id=T generation=8 composition=V6 config_type=C15_aa source_path=V-Cr-Ti-W-Zr/Fixed_Engrads/vcrtiwzr_fin_engrads/job_gen_6-2024-12-23/V/V6_C15_idx_3104 temperature=T date_processed=2025-01-03T17:40:32.296752 structure_type=T structure_index=3104 adversarial_step=T structure_id=8413 energy=-48.23944244384766 stress="0.18898197369077477 0.001184189043435579 0.001494641707357012 0.001184189043435579 0.18958122722345996 0.0009033086497525803 0.001494641707357012 0.0009033086497525803 0.18851303662712893" calculation_info="_JSON {\"calculation_id\": 8413, \"calculator\": \"vasp\", \"calculation_source_path\": \"\", \"error\": null, \"status\": \"completed\", \"gpu_count\": null, \"parameters\": {}, \"date_started\": null, \"gpu_memory_mb\": null, \"model_version\": null, \"date_completed\": null, \"runtime_seconds\": null}" parent_id=8413 step=14 variance=0.21982795000076294 loss=0.21982795000076294 pbc="T T T"
V        1.02012966       1.02867028       1.10574248      -0.23774877      -0.24692658      -0.23931463
V        2.96996895       0.99941655       3.13350935      -0.11229954      -0.01952554      -0.12926100
V        2.98351457       3.05352789       1.30790153      -0.13160047      -0.13726632      -0.01787977
V        0.99952970       2.95822698       3.11177212      -0.02536646      -0.10350969      -0.13222912
V        3.84368892       3.87713946       4.18659053       0.19604157       0.14050317       0.18442217
V        5.78904045       5.83895629       6.30380336       0.31097376       0.36672500       0.33426240
6
Lattice="-0.043394112 3.858732184 4.011499653 3.899091738 -0.059518916 4.054490961 3.926558929 4.049953748 0.402390163" Properties=species:S:1:pos:R:3:forces:R:3 batch_id=T generation=8 composition=V6 config_type=C15_aa source_path=V-Cr-Ti-W-Zr/Fixed_Engrads/vcrtiwzr_fin_engrads/job_gen_6-2024-12-23/V/V6_C15_idx_3104 temperature=T date_processed=2025-01-03T17:40:32.296752 structure_type=T structure_index=3104 adversarial_step=T structure_id=8413 energy=-48.23601150512695 stress="0.18898197369077477 0.001184189043435579 0.001494641707357012 0.001184189043435579 0.18958122722345996 0.0009033086497525803 0.001494641707357012 0.0009033086497525803 0.18851303662712893" calculation_info="_JSON {\"calculation_id\": 8413, \"calculator\": \"vasp\", \"calculation_source_path\": \"\", \"error\": null, \"status\": \"completed\", \"gpu_count\": null, \"parameters\": {}, \"date_started\": null, \"gpu_memory_mb\": null, \"model_version\": null, \"date_completed\": null, \"runtime_seconds\": null}" parent_id=8413 step=15 variance=0.2183733731508255 loss=0.2183733731508255 pbc="T T T"
V        1.02122586       1.02978007       1.10682882      -0.24300551      -0.25234589      -0.24489360
V        2.97108664       1.00055586       3.13463353      -0.11369827      -0.01810063      -0.13091519
V        2.98461615       3.05462837       1.30905475      -0.13343215      -0.13920853      -0.01615887
V        1.00070539       2.95934620       3.11287048      -0.02407867      -0.10472365      -0.13379793
V        3.84258537       3.87603729       4.18547601       0.19773264       0.14207403       0.18604119
V        5.78792129       5.83782460       6.30269687       0.31648192       0.37230474       0.33972439
6