8
Lattice="5.201112868 -0.262776402 -0.298562537 0.189592229 5.516327466 -0.38204414 -0.112729952 0.216428498 5.214337569" Properties=species:S:1:pos:R:3:forces:R:3 batch_id=T generation=6 composition=V8 config_type=A15 source_path=V-Cr-Ti-W-Zr/Fixed_Engrads/vcrtiwzr_fin_engrads/job_gen_6-2024-12-23/V/V8_A15_idx_3007 temperature=T date_processed=2025-01-03T17:40:38.959944 structure_type=T structure_index=3007 adversarial_step=T structure_id=8513 energy=-66.2506 stress="0.18233834909794736 -6.226529503981139e-05 -0.005419933038134119 -6.226529503981139e-05 0.1934601753489774 -0.0038970422604733598 -0.005419933038134119 -0.0038970422604733598 0.1834858318262136" calculation_info="_JSON {\"calculation_id\": 8513, \"calculator\": \"vasp\", \"calculation_source_path\": \"\", \"error\": null, \"status\": \"completed\", \"gpu_count\": null, \"parameters\": {}, \"date_started\": null, \"gpu_memory_mb\": null, \"model_version\": null, \"date_completed\": null, \"runtime_seconds\": null}" pbc="T T T"
V        0.00000000       0.00000000       0.00000000       0.00000000       0.00000000       0.00000000
V        2.63899000       2.73499000       2.26687000       0.00000000       0.00000000       0.00000000
V        1.39507000       2.69247000      -0.26566000      -0.04249800      -0.00038400      -0.03742300
V        3.99563000       2.56108000      -0.41494000       0.04249800       0.00038400       0.03742300
V        5.19215000       1.22452000       2.21310000      -0.00544300      -0.00039400       0.00775000
V        0.08583000       4.24546000       2.32064000       0.00544300       0.00039400      -0.00775000
V        2.76197000       5.43905000       0.77226000       0.04061600       0.00009000       0.04418400
V        2.70560000       5.54726000       3.37943000      -0.04061600      -0.00009000      -0.04418400
8
Lattice="5.201112868 -0.262776402 -0.298562537 0.189592229 5.516327466 -0.38204414 -0.112729952 0.216428498 5.214337569" Properties=species:S:1:pos:R:3:forces:R:3 batch_id=T generation=8 composition=V8 config_type=A15_aa source_path=V-Cr-Ti-W-Zr/Fixed_Engrads/vcrtiwzr_fin_engrads/job_gen_6-2024-12-23/V/V8_A15_idx_3007 temperature=T date_processed=2025-01-03T17:40:38.959944 structure_type=T structure_index=3007 adversarial_step=T structure_id=8513 energy=-66.23305969238281 stress="0.18233834909794736 -6.226529503981139e-05 -0.005419933038134119 -6.226529503981139e-05 0.1934601753489774 -0.0038970422604733598 -0.005419933038134119 -0.0038970422604733598 0.1834858318262136" calculation_info="_JSON {\"calculation_id\": 8513, \"calculator\": \"vasp\", \"calculation_source_path\": \"\", \"error\": null, \"status\": \"completed\", \"gpu_count\": null, \"parameters\": {}, \"date_started\": null, \"gpu_memory_mb\": null, \"model_version\": null, \"date_completed\": null, \"runtime_seconds\": null}" parent_id=8513 step=0 variance=0.34003758430480957 loss=0.34003758430480957 pbc="T T T"
V        0.00000000       0.00000000       0.00000000       0.00000029       0.00000080       0.00000213
V        2.63899000       2.73499000       2.26687000      -0.00000372      -0.00000058      -0.00000370
V        1.39507000       2.69247000      -0.26566000      -0.03066862      -0.00956545       0.03905535
V        3.99563000       2.56108000      -0.41494000       0.03068428       0.00956849      -0.03905851
V        5.19215000       1.22452000       2.21310000       0.01869915      -0.00368823      -0.03525269
V        0.08583000       4.24546000       2.32064000      -0.01870701       0.00368967       0.03525605
V        2.76197000       5.43905000       0.77226000      -0.03683081       0.01899591       0.03259403
V        2.70560000       5.54726000       3.37943000       0.03682651      -0.01900062      -0.03259253
8
Lattice="5.201112868 -0.262776402 -0.298562537 0.189592229 5.516327466 -0.38204414 -0.112729952 0.216428498 5.214337569" Properties=species:S:1:pos:R:3:forces:R:3 batch_id=T generation=8 composition=V8 config_type=A15_aa source_path=V-Cr-Ti-W-Zr/Fixed_Engrads/vcrtiwzr_fin_engrads/job_gen_6-2024-12-23/V/V8_A15_idx_3007 temperature=T date_processed=2025-01-03T17:40:38.959944 structure_type=T structure_index=3007 adversarial_step=T structure_id=8513 energy=-66.23233489990234 stress="0.18233834909794736 -6.226529503981139e-05 -0.005419933038134119 -6.226529503981139e-05 0.1934601753489774 -0.0038970422604733598 -0.005419933038134119 -0.0038970422604733598 0.1834858318262136" calculation_info="_JSON {\"calculation_id\": 8513, \"calculator\": \"vasp\", \"calculation_source_path\": \"\", \"error\": null, \"status\": \"completed\", \"gpu_count\": null, \"parameters\": {}, \"date_started\": null, \"gpu_memory_mb\": null, \"model_version\": null, \"date_completed\": null, \"runtime_seconds\": null}" parent_id=8513 step=1 variance=0.3220488429069519 loss=0.3220488429069519 pbc="T T T"
V       -0.01000000      -0.01000000       0.01000000      -0.01147912       0.01056671      -0.00730942
V        2.62899000       2.72499000       2.25687000       0.01120318       0.01209683       0.00073535
V        1.38507000       2.70247000      -0.27566000      -0.01981808      -0.02270697       0.04431666
V        3.98563000       2.57108000      -0.42494000       0.04182728      -0.00386747      -0.03353250
V        5.18215000       1.21452000       2.20310000       0.01287797       0.01317786      -0.04476806
V        0.07583000       4.23546000       2.31064000      -0.02436746       0.01954148       0.02507310
V        2.77197000       5.44905000       0.76226000      -0.04197160       0.00418886       0.04110721
V        2.71560000       5.55726000       3.36943000       0.03172773      -0.03299728      -0.02562230
8
Lattice="5.201112868 -0.262776402 -0.298562537 0.189592229 5.516327466 -0.38204414 -0.112729952 0.216428498 5.214337569" Properties=species:S:1:pos:R:3:forces:R:3 batch_id=T generation=8 composition=V8 config_type=A15_aa source_path=V-Cr-Ti-W-Zr/Fixed_Engrads/vcrtiwzr_fin_engrads/job_gen_6-2024-12-23/V/V8_A15_idx_3007 temperature=T date_processed=2025-01-03T17:40:38.959944 structure_type=T structure_index=3007 adversarial_step=T structure_id=8513 energy=-66.23103332519531 stress="0.18233834909794736 -6.226529503981139e-05 -0.005419933038134119 -6.226529503981139e-05 0.1934601753489774 -0.0038970422604733598 -0.005419933038134119 -0.0038970422604733598 0.1834858318262136" calculation_info="_JSON {\"calculation_id\": 8513, \"calculator\": \"vasp\", \"calculation_source_path\": \"\", \"error\": null, \"status\": \"completed\", \"gpu_count\": null, \"parameters\": {}, \"date_started\": null, \"gpu_memory_mb\": null, \"model_version\": null, \"date_completed\": null, \"runtime_seconds\": null}" parent_id=8513 step=2 variance=0.3208915591239929 loss=0.3208915591239929 pbc="T T T"
V       -0.01678164      -0.01669305       0.01668355      -0.01863748       0.01771702      -0.01253480
V        2.62232684       2.71831354       2.25019064       0.01865369       0.02028681       0.00117525
V        1.37837146       2.70915358      -0.28231239      -0.01272616      -0.03137987       0.04759410
V        3.97892360       2.57779071      -0.43172834       0.04948047      -0.01313353      -0.02951379
V        5.17546785       1.20780681       2.19638452       0.00897165       0.02512817      -0.05052480
V        0.06913771       4.22874650       2.30393245      -0.02799908       0.02966080       0.01811175
V        2.77864823       5.45576503       0.75555991      -0.04567854      -0.00629399       0.04760905
V        2.72236562       5.56395273       3.36274451       0.02793543      -0.04198546      -0.02191676
8
Lattice="5.201112868 -0.262776402 -0.298562537 0.189592229 5.516327466 -0.38204414 -0.112729952 0.216428498 5.214337569" Properties=species:S:1:pos:R:3:forces:R:3 batch_id=T generation=8 composition=V8 config_type=A15_aa source_path=V-Cr-Ti-W-Zr/Fixed_Engrads/vcrtiwzr_fin_engrads/job_gen_6-2024-12-23/V/V8_A15_idx_3007 temperature=T date_processed=2025-01-03T17:40:38.959944 structure_type=T structure_index=3007 adversarial_step=T structure_id=8513 energy=-66.22956848144531 stress="0.18233834909794736 -6.226529503981139e-05 -0.005419933038134119 -6.226529503981139e-05 0.1934601753489774 -0.0038970422604733598 -0.005419933038134119 -0.0038970422604733598 0.1834858318262136" calculation_info="_JSON {\"calculation_id\": 8513, \"calculator\": \"vasp\", \"calculation_source_path\": \"\", \"error\": null, \"status\": \"completed\", \"gpu_count\": null, \"parameters\": {}, \"date_started\": null, \"gpu_memory_mb\": null, \"model_version\": null, \"date_completed\": null, \"runtime_seconds\": null}" parent_id=8513 step=3 variance=0.31219813227653503 loss=0.31219813227653503 pbc="T T T"
V       -0.02206853      -0.02186209       0.02184117      -0.02370153       0.02330656      -0.01692472
V        2.61718935       2.71316489       2.24503744       0.02438354       0.02672438       0.00149752
V        1.37319998       2.71430568      -0.28741088      -0.00736372      -0.03803775       0.04995622
V        3.97373813       2.58297963      -0.43705490       0.05548865      -0.02046543      -0.02617244
V        5.17031092       1.20261611       2.19118393       0.00602838       0.03473583      -0.05453729
V        0.06396454       4.22355498       2.29874514      -0.03066576       0.03721335       0.01274182
V        2.78378890       5.46095961       0.75038037      -0.04879964      -0.01471953       0.05303835
V        2.72764897       5.56911865       3.35758888       0.02463004      -0.04875741      -0.01959953
8
Lattice="5.201112868 -0.262776402 -0.298562537 0.189592229 5.516327466 -0.38204414 -0.112729952 0.216428498 5.214337569" Properties=species:S:1:pos:R:3:forces:R:3 batch_id=T generation=8 composition=V8 config_type=A15_aa source_path=V-Cr-Ti-W-Zr/Fixed_Engrads/vcrtiwzr_fin_engrads/job_gen_6-2024-12-23/V/V8_A15_idx_3007 temperature=T date_processed=2025-01-03T17:40:38.959944 structure_type=T structure_index=3007 adversarial_step=T structure_id=8513 energy=-66.22806549072266 stress="0.18233834909794736 -6.226529503981139e-05 -0.005419933038134119 -6.226529503981139e-05 0.1934601753489774 -0.0038970422604733598 -0.005419933038134119 -0.0038970422604733598 0.1834858318262136" calculation_info="_JSON {\"calculation_id\": 8513, \"calculator\": \"vasp\", \"calculation_source_path\": \"\", \"error\": null, \"status\": \"completed\", \"gpu_count\": null, \"parameters\": {}, \"date_started\": null, \"gpu_memory_mb\": null, \"model_version\": null, \"date_completed\": null, \"runtime_seconds\": null}" parent_id=8513 step=4 variance=0.30059438943862915 loss=0.30059438943862915 pbc="T T T"
V       -0.02643151      -0.02609296       0.02605993      -0.02745961       0.02793275      -0.02082339
V        2.61298217       2.70895600       2.24082254       0.02906001       0.03208994       0.00175844
V        1.36897206       2.71851355      -0.29155306      -0.00305398      -0.04347395       0.05177431
V        3.96949105       2.58722514      -0.44148395       0.06045274      -0.02657991      -0.02325931
V        5.16609156       1.19836648       2.18691708       0.00370535       0.04286295      -0.05749733
V        0.05972393       4.21930442       2.29449403      -0.03273154       0.04321712       0.00839684
V        2.78797713       5.46521293       0.74613566      -0.05156366      -0.02183483       0.05773360
V        2.73202074       5.57334321       3.35337776       0.02159074      -0.05421405      -0.01808307
8
Lattice="5.201112868 -0.262776402 -0.298562537 0.189592229 5.516327466 -0.38204414 -0.112729952 0.216428498 5.214337569" Properties=species:S:1:pos:R:3:forces:R:3 batch_id=T generation=8 composition=V8 config_type=A15_aa source_path=V-Cr-Ti-W-Zr/Fixed_Engrads/vcrtiwzr_fin_engrads/job_gen_6-2024-12-23/V/V8_A15_idx_3007 temperature=T date_processed=2025-01-03T17:40:38.959944 structure_type=T structure_index=3007 adversarial_step=T structure_id=8513 energy=-66.22657623291016 stress="0.18233834909794736 -6.226529503981139e-05 -0.005419933038134119 -6.226529503981139e-05 0.1934601753489774 -0.0038970422604733598 -0.005419933038134119 -0.0038970422604733598 0.1834858318262136" calculation_info="_JSON {\"calculation_id\": 8513, \"calculator\": \"vasp\", \"calculation_source_path\": \"\", \"error\": null, \"status\": \"completed\", \"gpu_count\": null, \"parameters\": {}, \"date_started\": null, \"gpu_memory_mb\": null, \"model_version\": null, \"date_completed\": null, \"runtime_seconds\": null}" parent_id=8513 step=5 variance=0.28823137283325195 loss=0.28823137283325195 pbc="T T T"
V       -0.03014596      -0.02966526       0.02961995      -0.03030934       0.03188268      -0.02437160
V        2.60942288       2.70540585       2.23726449       0.03300089       0.03670225       0.00197394
V        1.36540781       2.72205968      -0.29502794       0.00052429      -0.04806532       0.05322202
V        3.96590308       2.59080624      -0.44528139       0.06467760      -0.03182233      -0.02065593
V        5.16252846       1.19477829       2.18330556       0.00182163       0.04991434      -0.05974538
V        0.05613630       4.21571581       2.29089958      -0.03439140       0.04816083       0.00477743
V        2.79149553       5.46880517       0.74254560      -0.05406277      -0.02800150       0.06186482
V        2.73575476       5.57690760       3.34983042       0.01873912      -0.05877091      -0.01706541
8
Lattice="5.201112868 -0.262776402 -0.298562537 0.189592229 5.516327466 -0.38204414 -0.112729952 0.216428498 5.214337569" Properties=species:S:1:pos:R:3:forces:R:3 batch_id=T generation=8 composition=V8 config_type=A15_aa source_path=V-Cr-Ti-W-Zr/Fixed_Engrads/vcrtiwzr_fin_engrads/job_gen_6-2024-12-23/V/V8_A15_idx_3007 temperature=T date_processed=2025-01-03T17:40:38.959944 structure_type=T structure_index=3007 adversarial_step=T structure_id=8513 energy=-66.2251220703125 stress="0.18233834909794736 -6.226529503981139e-05 -0.005419933038134119 -6.226529503981139e-05 0.1934601753489774 -0.0038970422604733598 -0.005419933038134119 -0.0038970422604733598 0.1834858318262136" calculation_info="_JSON {\"calculation_id\": 8513, \"calculator\": \"vasp\", \"calculation_source_path\": \"\", \"error\": null, \"status\": \"completed\", \"gpu_count\": null, \"parameters\": {}, \"date_started\": null, \"gpu_memory_mb\": null, \"model_version\": null, \"date_completed\": null, \"runtime_seconds\": null}" parent_id=8513 step=6 variance=0.2762397229671478 loss=0.2762397229671478 pbc="T T T"
V       -0.03337106      -0.03274066       0.03268125      -0.03249841       0.03531273      -0.02763312
V        2.60635026       2.70235288       2.23420112       0.03639206       0.04073627       0.00216019
V        1.36234517       2.72510658      -0.29800543       0.00355463      -0.05202882       0.05441058
V        3.96281326       2.59388388      -0.44859572       0.06831957      -0.03638538      -0.01830993
V        5.15945950       1.19168984       2.18018916       0.00027245       0.05613086      -0.06148241
V        0.05304046       4.21262766       2.28780031      -0.03575394       0.05232048       0.00171954
V        2.79450753       5.47189676       0.73944866      -0.05633010      -0.03341959       0.06553614
V        2.73900632       5.57997295       3.34678485       0.01604374      -0.06266657      -0.01640101
8
Lattice="5.201112868 -0.262776402 -0.298562537 0.189592229 5.516327466 -0.38204414 -0.112729952 0.216428498 5.214337569" Properties=species:S:1:pos:R:3:forces:R:3 batch_id=T generation=8 composition=V8 config_type=A15_aa source_path=V-Cr-Ti-W-Zr/Fixed_Engrads/vcrtiwzr_fin_engrads/job_gen_6-2024-12-23/V/V8_A15_idx_3007 temperature=T date_processed=2025-01-03T17:40:38.959944 structure_type=T structure_index=3007 adversarial_step=T structure_id=8513 energy=-66.22373657226562 stress="0.18233834909794736 -6.226529503981139e-05 -0.005419933038134119 -6.226529503981139e-05 0.1934601753489774 -0.0038970422604733598 -0.005419933038134119 -0.0038970422604733598 0.1834858318262136" calculation_info="_JSON {\"calculation_id\": 8513, \"calculator\": \"vasp\", \"calculation_source_path\": \"\", \"error\": null, \"status\": \"completed\", \"gpu_count\": null, \"parameters\": {}, \"date_started\": null, \"gpu_memory_mb\": null, \"model_version\": null, \"date_completed\": null, \"runtime_seconds\": null}" parent_id=8513 step=7 variance=0.2651963531970978 loss=0.2651963531970978 pbc="T T T"
V       -0.03620842      -0.03542284       0.03534798      -0.03418512       0.03833137      -0.03065268
V        2.60365908       2.69969327       2.23152838       0.03934922       0.04430675       0.00232337
V        1.35967933       2.72775807      -0.30059483       0.00616125      -0.05549138       0.05540246
V        3.96011773       2.59656222      -0.45152466       0.07149696      -0.04041065      -0.01618597
V        5.15678034       1.18899707       2.17746445      -0.00101773       0.06166764      -0.06283630
V        0.05033318       4.20993628       2.28509264      -0.03688863       0.05587085      -0.00090064
V        2.79711827       5.47459137       0.73674065      -0.05840650      -0.03822983       0.06882761
V        2.74187464       5.58264231       3.34413633       0.01349052      -0.06604478      -0.01597778
8
Lattice="5.201112868 -0.262776402 -0.298562537 0.189592229 5.516327466 -0.38204414 -0.112729952 0.216428498 5.214337569" Properties=species:S:1:pos:R:3:forces:R:3 batch_id=T generation=8 composition=V8 config_type=A15_aa source_path=V-Cr-Ti-W-Zr/Fixed_Engrads/vcrtiwzr_fin_engrads/job_gen_6-2024-12-23/V/V8_A15_idx_3007 temperature=T date_processed=2025-01-03T17:40:38.959944 structure_type=T structure_index=3007 adversarial_step=T structure_id=8513 energy=-66.22240905761718 stress="0.18233834909794736 -6.226529503981139e-05 -0.005419933038134119 -6.226529503981139e-05 0.1934601753489774 -0.0038970422604733598 -0.005419933038134119 -0.0038970422604733598 0.1834858318262136" calculation_info="_JSON {\"calculation_id\": 8513, \"calculator\": \"vasp\", \"calculation_source_path\": \"\", \"error\": null, \"status\": \"completed\", \"gpu_count\": null, \"parameters\": {}, \"date_started\": null, \"gpu_memory_mb\": null, \"model_version\": null, \"date_completed\": null, \"runtime_seconds\": null}" parent_id=8513 step=8 variance=0.2553616762161255 loss=0.2553616762161255 pbc="T T T"
V       -0.03872814      -0.03778358       0.03769226      -0.03548477       0.04100907      -0.03345039
V        2.60127836       2.69735470       2.22917420       0.04195117       0.04749107       0.00247096
V        1.35733754       2.73008636      -0.30287026       0.00842715      -0.05854886       0.05624906
V        3.95774462       2.59891515      -0.45413332       0.07428811      -0.04398074      -0.01424979
V        5.15441905       1.18662764       2.17505994      -0.00210231       0.06662939      -0.06389868
V        0.04794308       4.20756917       2.28270490      -0.03784446       0.05893280      -0.00315951
V        2.79940227       5.47696174       0.73435016      -0.06030130      -0.04252843       0.07178213
V        2.74442810       5.58498676       3.34181206       0.01106647      -0.06900433      -0.01574376
8
Lattice="5.201112868 -0.262776402 -0.298562537 0.189592229 5.516327466 -0.38204414 -0.112729952 0.216428498 5.214337569" Properties=species:S:1:pos:R:3:forces:R:3 batch_id=T generation=8 composition=V8 config_type=A15_aa source_path=V-Cr-Ti-W-Zr/Fixed_Engrads/vcrtiwzr_fin_engrads/job_gen_6-2024-12-23/V/V8_A15_idx_3007 temperature=T date_processed=2025-01-03T17:40:38.959944 structure_type=T structure_index=3007 adversarial_step=T structure_id=8513 energy=-66.22114868164063 stress="0.18233834909794736 -6.226529503981139e-05 -0.005419933038134119 -6.226529503981139e-05 0.1934601753489774 -0.0038970422604733598 -0.005419933038134119 -0.0038970422604733598 0.1834858318262136" calculation_info="_JSON {\"calculation_id\": 8513, \"calculator\": \"vasp\", \"calculation_source_path\": \"\", \"error\": null, \"status\": \"completed\", \"gpu_count\": null, \"parameters\": {}, \"date_started\": null, \"gpu_memory_mb\": null, \"model_version\": null, \"date_completed\": null, \"runtime_seconds\": null}" parent_id=8513 step=9 variance=0.24674558639526367 loss=0.24674558639526367 pbc="T T T"
V       -0.04098160      -0.03987543       0.03976701      -0.03648451       0.04339749      -0.03604629
V        2.59915766       2.69528434       2.22708619       0.04426382       0.05034395       0.00259638
V        1.35526638       2.73214412      -0.30488681       0.01041014      -0.06126318       0.05698074
V        3.95564121       2.60099741      -0.45647032       0.07675333      -0.04717144      -0.01249090
V        5.15232319       1.18452884       2.17292355      -0.00301938       0.07110284      -0.06473684
V        0.04581809       4.20547322       2.28058441      -0.03865990       0.06159617      -0.00512264
V        2.80141523       5.47906120       0.73222473      -0.06203645      -0.04639252       0.07445793
V        2.74671709       5.58705838       3.33975866       0.00877298      -0.07161339      -0.01563845
8
Lattice="5.201112868 -0.262776402 -0.298562537 0.189592229 5.516327466 -0.38204414 -0.112729952 0.216428498 5.214337569" Properties=species:S:1:pos:R:3:forces:R:3 batch_id=T generation=8 composition=V8 config_type=A15_aa source_path=V-Cr-Ti-W-Zr/Fixed_Engrads/vcrtiwzr_fin_engrads/job_gen_6-2024-12-23/V/V8_A15_idx_3007 temperature=T date_processed=2025-01-03T17:40:38.959944 structure_type=T structure_index=3007 adversarial_step=T structure_id=8513 energy=-66.21996154785157 stress="0.18233834909794736 -6.226529503981139e-05 -0.005419933038134119 -6.226529503981139e-05 0.1934601753489774 -0.0038970422604733598 -0.005419933038134119 -0.0038970422604733598 0.1834858318262136" calculation_info="_JSON {\"calculation_id\": 8513, \"calculator\": \"vasp\", \"calculation_source_path\": \"\", \"error\": null, \"status\": \"completed\", \"gpu_count\": null, \"parameters\": {}, \"date_started\": null, \"gpu_memory_mb\": null, \"model_version\": null, \"date_completed\": null, \"runtime_seconds\": null}" parent_id=8513 step=10 variance=0.239273339509964 loss=0.239273339509964 pbc="T T T"
V       -0.04300789      -0.04173872       0.04161215      -0.03724069       0.04553483      -0.03845599
V        2.59725892       2.69344212       2.22522446       0.04632751       0.05291481       0.00270904
V        1.35342486       2.73397149      -0.30668445       0.01216088      -0.06368455       0.05761878
V        3.95376707       2.60285077      -0.45857334       0.07893757      -0.05003585      -0.01088274
V        5.15045271       1.18266057       2.17101543      -0.00380427       0.07514630      -0.06539737
V        0.04391849       4.20360765       2.27869115      -0.03936363       0.06392272      -0.00683662
V        2.80319967       5.48093088       0.73032482      -0.06361905      -0.04987510       0.07688080
V        2.74878028       5.58889715       3.33793532       0.00660167      -0.07392314      -0.01563584
8
Lattice="5.201112868 -0.262776402 -0.298562537 0.189592229 5.516327466 -0.38204414 -0.112729952 0.216428498 5.214337569" Properties=species:S:1:pos:R:3:forces:R:3 batch_id=T generation=8 composition=V8 config_type=A15_aa source_path=V-Cr-Ti-W-Zr/Fixed_Engrads/vcrtiwzr_fin_engrads/job_gen_6-2024-12-23/V/V8_A15_idx_3007 temperature=T date_processed=2025-01-03T17:40:38.959944 structure_type=T structure_index=3007 adversarial_step=T structure_id=8513 energy=-66.21885223388672 stress="0.18233834909794736 -6.226529503981139e-05 -0.005419933038134119 -6.226529503981139e-05 0.1934601753489774 -0.0038970422604733598 -0.005419933038134119 -0.0038970422604733598 0.1834858318262136" calculation_info="_JSON {\"calculation_id\": 8513, \"calculator\": \"vasp\", \"calculation_source_path\": \"\", \"error\": null, \"status\": \"completed\", \"gpu_count\": null, \"parameters\": {}, \"date_started\": null, \"gpu_memory_mb\": null, \"model_version\": null, \"date_completed\": null, \"runtime_seconds\": null}" parent_id=8513 step=11 variance=0.23279666900634766 loss=0.23279666900634766 pbc="T T T"
V       -0.04483804      -0.04340516       0.04325900      -0.03780679       0.04746052      -0.04069214
V        2.59555039       2.69179622       2.22355757       0.04817696       0.05523381       0.00281246
V        1.35178090       2.73559926      -0.30829497       0.01370967      -0.06584725       0.05817696
V        3.95209041       2.60450708      -0.46047365       0.08088301      -0.05261601      -0.00941147
V        5.14877615       1.18099121       2.16930406      -0.00447495       0.07881217      -0.06591747
V        0.04221320       4.20194023       2.27699363      -0.03997228       0.06596655      -0.00833544
V        2.80478797       5.48260242       0.72861894      -0.06506980      -0.05302957       0.07907136
V        2.75064764       5.59053416       3.33630992       0.00455424      -0.07598015      -0.01570422
8
Lattice="5.201112868 -0.262776402 -0.298562537 0.189592229 5.516327466 -0.38204414 -0.112729952 0.216428498 5.214337569" Properties=species:S:1:pos:R:3:forces:R:3 batch_id=T generation=8 composition=V8 config_type=A15_aa source_path=V-Cr-Ti-W-Zr/Fixed_Engrads/vcrtiwzr_fin_engrads/job_gen_6-2024-12-23/V/V8_A15_idx_3007 temperature=T date_processed=2025-01-03T17:40:38.959944 structure_type=T structure_index=3007 adversarial_step=T structure_id=8513 energy=-66.21781158447266 stress="0.18233834909794736 -6.226529503981139e-05 -0.005419933038134119 -6.226529503981139e-05 0.1934601753489774 -0.0038970422604733598 -0.005419933038134119 -0.0038970422604733598 0.1834858318262136" calculation_info="_JSON {\"calculation_id\": 8513, \"calculator\": \"vasp\", \"calculation_source_path\": \"\", \"error\": null, \"status\": \"completed\", \"gpu_count\": null, \"parameters\": {}, \"date_started\": null, \"gpu_memory_mb\": null, \"model_version\": null, \"date_completed\": null, \"runtime_seconds\": null}" parent_id=8513 step=12 variance=0.22718490660190582 loss=0.22718490660190582 pbc="T T T"
V       -0.04649698      -0.04489988       0.04473357      -0.03822064       0.04919638      -0.04276410
V        2.59400861       2.69032139       2.22206028       0.04984038       0.05733069       0.00290192
V        1.35030865       2.73705331      -0.30974277       0.01508760      -0.06778312       0.05866923
V        3.95058569       2.60599286      -0.46219587       0.08261681      -0.05495303      -0.00806638
V        5.14726841       1.17949543       2.16776421      -0.00505083       0.08214178      -0.06632151
V        0.04067739       4.20044561       2.27546665      -0.04050597       0.06776588      -0.00965312
V        2.80620689       5.48410141       0.72708214      -0.06639352      -0.05588456       0.08106193
V        2.75234323       5.59199458       3.33485684       0.00262614      -0.07781403      -0.01582797
8
Lattice="5.201112868 -0.262776402 -0.298562537 0.189592229 5.516327466 -0.38204414 -0.112729952 0.216428498 5.214337569" Properties=species:S:1:pos:R:3:forces:R:3 batch_id=T generation=8 composition=V8 config_type=A15_aa source_path=V-Cr-Ti-W-Zr/Fixed_Engrads/vcrtiwzr_fin_engrads/job_gen_6-2024-12-23/V/V8_A15_idx_3007 temperature=T date_processed=2025-01-03T17:40:38.959944 structure_type=T structure_index=3007 adversarial_step=T structure_id=8513 energy=-66.21683959960937 stress="0.18233834909794736 -6.226529503981139e-05 -0.005419933038134119 -6.226529503981139e-05 0.1934601753489774 -0.0038970422604733598 -0.005419933038134119 -0.0038970422604733598 0.1834858318262136" calculation_info="_JSON {\"calculation_id\": 8513, \"calculator\": \"vasp\", \"calculation_source_path\": \"\", \"error\": null, \"status\": \"completed\", \"gpu_count\": null, \"parameters\": {}, \"date_started\": null, \"gpu_memory_mb\": null, \"model_version\": null, \"date_completed\": null, \"runtime_seconds\": null}" parent_id=8513 step=13 variance=0.22230780124664307 loss=0.22230780124664307 pbc="T T T"
V       -0.04800463      -0.04624383       0.04605734      -0.03851063       0.05076458      -0.04468412
V        2.59261333       2.68899675       2.22071178       0.05134078       0.05923128       0.00298356
V        1.34898655       2.73835396      -0.31104837       0.01631762      -0.06952397       0.05910520
V        3.94923200       2.60732949      -0.46376105       0.08417083      -0.05707193      -0.00683096
V        5.14590880       1.17815226       2.16637514      -0.00555259       0.08517115      -0.06664123
V        0.03929031       4.19910257       2.27408936      -0.04097474       0.06935454      -0.01081427
V        2.80747733       5.48544962       0.72569396      -0.06759875      -0.05847787       0.08287883
V        2.75388796       5.59329957       3.33355477       0.00080745      -0.07944773      -0.01599699
8