6
Lattice="0.040374446 3.757943647 3.682562602 3.73181283 0.022408286 3.684129354 3.658614463 3.725906879 0.019263841" Properties=species:S:1:pos:R:3:forces:R:3 generation=6 composition=W6 config_type=C15 source_path=V-Cr-Ti-W-Zr/Fixed_Engrads/vcrtiwzr_fin_engrads/job_gen_6-2024-12-23/W/W6_C15_idx_3033 date_processed=2025-02-12T16:53:56.062964 structure_index=3033 structure_id=21685 energy=-74.952065 stress="-0.008335579128180972 -0.003821956905688984 0.01354669623699954 -0.003821956905688984 -0.0011771049305777013 0.0067874476876151404 0.01354669623699954 0.0067874476876151404 -0.00884451802381462" calculation_info="_JSON {\"calculation_id\": 21684, \"calculator\": \"vasp\", \"calculation_source_path\": \"\", \"error\": null, \"status\": \"completed\", \"gpu_count\": null, \"parameters\": {}, \"date_started\": null, \"gpu_memory_mb\": null, \"model_version\": null, \"date_completed\": null, \"runtime_seconds\": null}" pbc="T T T"
W        0.92885000       0.93828000       0.92324000       0.00000000       0.00000000       0.00000000
W        2.79476000       0.94949000       2.76531000       0.00000000       0.00000000       0.00000000
W        2.75816000       2.80124000       0.93288000       0.00000000       0.00000000       0.00000000
W        0.94904000       2.81725000       2.76453000       0.00000000       0.00000000       0.00000000
W        3.71540000       3.75313000       3.69298000      -0.02600500      -0.04224900       0.01778000
W        5.57310000       5.62969000       5.53947000       0.02600500       0.04224900      -0.01778000
6
Lattice="0.040374446 3.757943647 3.682562602 3.73181283 0.022408286 3.684129354 3.658614463 3.725906879 0.019263841" Properties=species:S:1:pos:R:3:forces:R:3 generation=8 composition=W6 config_type=C15_aa source_path=V-Cr-Ti-W-Zr/Fixed_Engrads/vcrtiwzr_fin_engrads/job_gen_6-2024-12-23/W/W6_C15_idx_3033 date_processed=2025-02-12T16:53:56.062964 structure_index=3033 structure_id=21685 energy=-74.89895324707031 stress="-0.008335579128180972 -0.003821956905688984 0.01354669623699954 -0.003821956905688984 -0.0011771049305777013 0.0067874476876151404 0.01354669623699954 0.0067874476876151404 -0.00884451802381462" calculation_info="_JSON {\"calculation_id\": 21684, \"calculator\": \"vasp\", \"calculation_source_path\": \"\", \"error\": null, \"status\": \"completed\", \"gpu_count\": null, \"parameters\": {}, \"date_started\": null, \"gpu_memory_mb\": null, \"model_version\": null, \"date_completed\": null, \"runtime_seconds\": null}" parent_id=21685 step=0 variance=0.1987065076828003 loss=0.1987065076828003 pbc="T T T"
W        0.92885000       0.93828000       0.92324000       0.00011837       0.00010645       0.00012754
W        2.79476000       0.94949000       2.76531000      -0.00004089      -0.00008637      -0.00004489
W        2.75816000       2.80124000       0.93288000      -0.00008489      -0.00006135      -0.00002125
W        0.94904000       2.81725000       2.76453000      -0.00005665      -0.00000911      -0.00005846
W        3.71540000       3.75313000       3.69298000      -0.01736907      -0.02520152       0.01125824
W        5.57310000       5.62969000       5.53947000       0.01743295       0.02525198      -0.01126113
6
Lattice="0.040374446 3.757943647 3.682562602 3.73181283 0.022408286 3.684129354 3.658614463 3.725906879 0.019263841" Properties=species:S:1:pos:R:3:forces:R:3 generation=8 composition=W6 config_type=C15_aa source_path=V-Cr-Ti-W-Zr/Fixed_Engrads/vcrtiwzr_fin_engrads/job_gen_6-2024-12-23/W/W6_C15_idx_3033 date_processed=2025-02-12T16:53:56.062964 structure_index=3033 structure_id=21685 energy=-74.89732971191407 stress="-0.008335579128180972 -0.003821956905688984 0.01354669623699954 -0.003821956905688984 -0.0011771049305777013 0.0067874476876151404 0.01354669623699954 0.0067874476876151404 -0.00884451802381462" calculation_info="_JSON {\"calculation_id\": 21684, \"calculator\": \"vasp\", \"calculation_source_path\": \"\", \"error\": null, \"status\": \"completed\", \"gpu_count\": null, \"parameters\": {}, \"date_started\": null, \"gpu_memory_mb\": null, \"model_version\": null, \"date_completed\": null, \"runtime_seconds\": null}" parent_id=21685 step=1 variance=0.06578277796506882 loss=0.06578277796506882 pbc="T T T"
W        0.93885000       0.94828000       0.93324000      -0.04102848       0.01706200       0.01780566
W        2.80476000       0.95949000       2.77531000      -0.04050037      -0.01511238       0.01564118
W        2.76816000       2.81124000       0.94288000      -0.04274984       0.01558703      -0.01571610
W        0.95904000       2.82725000       2.77453000      -0.04256379      -0.01785407      -0.01739963
W        3.70540000       3.76313000       3.70298000       0.17996570      -0.02569405       0.01256767
W        5.58310000       5.63969000       5.54947000      -0.01312309       0.02601145      -0.01289864
6
Lattice="0.040374446 3.757943647 3.682562602 3.73181283 0.022408286 3.684129354 3.658614463 3.725906879 0.019263841" Properties=species:S:1:pos:R:3:forces:R:3 generation=8 composition=W6 config_type=C15_aa source_path=V-Cr-Ti-W-Zr/Fixed_Engrads/vcrtiwzr_fin_engrads/job_gen_6-2024-12-23/W/W6_C15_idx_3033 date_processed=2025-02-12T16:53:56.062964 structure_index=3033 structure_id=21685 energy=-74.89422760009765 stress="-0.008335579128180972 -0.003821956905688984 0.01354669623699954 -0.003821956905688984 -0.0011771049305777013 0.0067874476876151404 0.01354669623699954 0.0067874476876151404 -0.00884451802381462" calculation_info="_JSON {\"calculation_id\": 21684, \"calculator\": \"vasp\", \"calculation_source_path\": \"\", \"error\": null, \"status\": \"completed\", \"gpu_count\": null, \"parameters\": {}, \"date_started\": null, \"gpu_memory_mb\": null, \"model_version\": null, \"date_completed\": null, \"runtime_seconds\": null}" parent_id=21685 step=2 variance=0.01767771877348423 loss=0.01767771877348423 pbc="T T T"
W        0.94593153       0.95444924       0.94010149      -0.06732287       0.05403686       0.00929973
W        2.81159294       0.96549474       2.78197750      -0.04086166      -0.04424212       0.01339244
W        2.77534408       2.81782967       0.95038124      -0.06486733       0.02096590      -0.07422405
W        0.96873571       2.83379096       2.78148422      -0.12704965      -0.00709538      -0.03492909
W        3.70156342       3.76907409       3.70990106       0.28691435      -0.01499337       0.00166542
W        5.58652536       5.64966514       5.54672947       0.01318730      -0.00867177       0.08479570
6
Lattice="0.040374446 3.757943647 3.682562602 3.73181283 0.022408286 3.684129354 3.658614463 3.725906879 0.019263841" Properties=species:S:1:pos:R:3:forces:R:3 generation=8 composition=W6 config_type=C15_aa source_path=V-Cr-Ti-W-Zr/Fixed_Engrads/vcrtiwzr_fin_engrads/job_gen_6-2024-12-23/W/W6_C15_idx_3033 date_processed=2025-02-12T16:53:56.062964 structure_index=3033 structure_id=21685 energy=-74.89044647216797 stress="-0.008335579128180972 -0.003821956905688984 0.01354669623699954 -0.003821956905688984 -0.0011771049305777013 0.0067874476876151404 0.01354669623699954 0.0067874476876151404 -0.00884451802381462" calculation_info="_JSON {\"calculation_id\": 21684, \"calculator\": \"vasp\", \"calculation_source_path\": \"\", \"error\": null, \"status\": \"completed\", \"gpu_count\": null, \"parameters\": {}, \"date_started\": null, \"gpu_memory_mb\": null, \"model_version\": null, \"date_completed\": null, \"runtime_seconds\": null}" parent_id=21685 step=3 variance=0.010957073420286179 loss=0.010957073420286179 pbc="T T T"
W        0.95145249       0.95930663       0.94540300      -0.09142516       0.07853312       0.00573700
W        2.81687534       0.96950759       2.78713056      -0.04608240      -0.05112493       0.00784151
W        2.78085466       2.82294239       0.95564780      -0.08082591       0.01939111      -0.10199632
W        0.97622171       2.83885391       2.78679299      -0.18310432      -0.00420777      -0.04646446
W        3.69857668       3.77375318       3.71519210       0.36887509      -0.00955157      -0.00530562
W        5.58916498       5.65697547       5.54645341       0.03256273      -0.03303987       0.14018789
6
Lattice="0.040374446 3.757943647 3.682562602 3.73181283 0.022408286 3.684129354 3.658614463 3.725906879 0.019263841" Properties=species:S:1:pos:R:3:forces:R:3 generation=8 composition=W6 config_type=C15_aa source_path=V-Cr-Ti-W-Zr/Fixed_Engrads/vcrtiwzr_fin_engrads/job_gen_6-2024-12-23/W/W6_C15_idx_3033 date_processed=2025-02-12T16:53:56.062964 structure_index=3033 structure_id=21685 energy=-74.88658447265625 stress="-0.008335579128180972 -0.003821956905688984 0.01354669623699954 -0.003821956905688984 -0.0011771049305777013 0.0067874476876151404 0.01354669623699954 0.0067874476876151404 -0.00884451802381462" calculation_info="_JSON {\"calculation_id\": 21684, \"calculator\": \"vasp\", \"calculation_source_path\": \"\", \"error\": null, \"status\": \"completed\", \"gpu_count\": null, \"parameters\": {}, \"date_started\": null, \"gpu_memory_mb\": null, \"model_version\": null, \"date_completed\": null, \"runtime_seconds\": null}" parent_id=21685 step=4 variance=0.011076499707996845 loss=0.011076499707996845 pbc="T T T"
W        0.95602132       0.96333082       0.94979478      -0.11376719       0.09711131       0.00169051
W        2.82117614       0.97206155       2.79136736      -0.05288851      -0.04194356      -0.00246905
W        2.78533395       2.82715099       0.95961802      -0.09290145       0.01166675      -0.11322609
W        0.98243863       2.84299031       2.79110814      -0.22286510      -0.00502049      -0.05540010
W        3.69617097       3.77766800       3.71950496       0.43484718      -0.00765431      -0.01162015
W        5.59134258       5.66291998       5.54656291       0.04757515      -0.05415978       0.18102495
6
Lattice="0.040374446 3.757943647 3.682562602 3.73181283 0.022408286 3.684129354 3.658614463 3.725906879 0.019263841" Properties=species:S:1:pos:R:3:forces:R:3 generation=8 composition=W6 config_type=C15_aa source_path=V-Cr-Ti-W-Zr/Fixed_Engrads/vcrtiwzr_fin_engrads/job_gen_6-2024-12-23/W/W6_C15_idx_3033 date_processed=2025-02-12T16:53:56.062964 structure_index=3033 structure_id=21685 energy=-74.88273773193359 stress="-0.008335579128180972 -0.003821956905688984 0.01354669623699954 -0.003821956905688984 -0.0011771049305777013 0.0067874476876151404 0.01354669623699954 0.0067874476876151404 -0.00884451802381462" calculation_info="_JSON {\"calculation_id\": 21684, \"calculator\": \"vasp\", \"calculation_source_path\": \"\", \"error\": null, \"status\": \"completed\", \"gpu_count\": null, \"parameters\": {}, \"date_started\": null, \"gpu_memory_mb\": null, \"model_version\": null, \"date_completed\": null, \"runtime_seconds\": null}" parent_id=21685 step=5 variance=0.012978089042007923 loss=0.012978089042007923 pbc="T T T"
W        0.95997579       0.96676839       0.95361868      -0.13671930       0.11121795      -0.00535932
W        2.82471659       0.97365757       2.79493230      -0.05545089      -0.02562923      -0.01446292
W        2.78908114       2.83072441       0.96269680      -0.09929220       0.00072218      -0.11703797
W        0.98811160       2.84644604       2.79472571      -0.25814253      -0.00407233      -0.05984259
W        3.69426610       3.78108179       3.72313362       0.48946095      -0.00826780      -0.01732594
W        5.59321380       5.66802543       5.54675709       0.06014398      -0.07397089       0.21402872
6
Lattice="0.040374446 3.757943647 3.682562602 3.73181283 0.022408286 3.684129354 3.658614463 3.725906879 0.019263841" Properties=species:S:1:pos:R:3:forces:R:3 generation=8 composition=W6 config_type=C15_aa source_path=V-Cr-Ti-W-Zr/Fixed_Engrads/vcrtiwzr_fin_engrads/job_gen_6-2024-12-23/W/W6_C15_idx_3033 date_processed=2025-02-12T16:53:56.062964 structure_index=3033 structure_id=21685 energy=-74.8786865234375 stress="-0.008335579128180972 -0.003821956905688984 0.01354669623699954 -0.003821956905688984 -0.0011771049305777013 0.0067874476876151404 0.01354669623699954 0.0067874476876151404 -0.00884451802381462" calculation_info="_JSON {\"calculation_id\": 21684, \"calculator\": \"vasp\", \"calculation_source_path\": \"\", \"error\": null, \"status\": \"completed\", \"gpu_count\": null, \"parameters\": {}, \"date_started\": null, \"gpu_memory_mb\": null, \"model_version\": null, \"date_completed\": null, \"runtime_seconds\": null}" parent_id=21685 step=6 variance=0.021339580416679382 loss=0.021339580416679382 pbc="T T T"
W        0.96356424       0.96976327       0.95712907      -0.16352485       0.12057199      -0.01857651
W        2.82754234       0.97551787       2.79789557      -0.03950681      -0.02993035      -0.01643628
W        2.79227241       2.83379478       0.96541714      -0.09379464      -0.00262951      -0.13531590
W        0.99413766       2.84932365       2.79781640      -0.31358248       0.01182351      -0.05332951
W        3.69282913       3.78414562       3.72624641       0.53720462      -0.00859389      -0.02041546
W        5.59487163       5.67256139       5.54694927       0.07320418      -0.09124179       0.24407367
6
Lattice="0.040374446 3.757943647 3.682562602 3.73181283 0.022408286 3.684129354 3.658614463 3.725906879 0.019263841" Properties=species:S:1:pos:R:3:forces:R:3 generation=8 composition=W6 config_type=C15_aa source_path=V-Cr-Ti-W-Zr/Fixed_Engrads/vcrtiwzr_fin_engrads/job_gen_6-2024-12-23/W/W6_C15_idx_3033 date_processed=2025-02-12T16:53:56.062964 structure_index=3033 structure_id=21685 energy=-74.8746337890625 stress="-0.008335579128180972 -0.003821956905688984 0.01354669623699954 -0.003821956905688984 -0.0011771049305777013 0.0067874476876151404 0.01354669623699954 0.0067874476876151404 -0.00884451802381462" calculation_info="_JSON {\"calculation_id\": 21684, \"calculator\": \"vasp\", \"calculation_source_path\": \"\", \"error\": null, \"status\": \"completed\", \"gpu_count\": null, \"parameters\": {}, \"date_started\": null, \"gpu_memory_mb\": null, \"model_version\": null, \"date_completed\": null, \"runtime_seconds\": null}" parent_id=21685 step=7 variance=0.0541110597550869 loss=0.0541110597550869 pbc="T T T"
W        0.96706554       0.97240193       0.96062325      -0.20086363       0.12454417      -0.04468088
W        2.82961019       0.97634039       2.80028470      -0.00816412      -0.02596659      -0.01511846
W        2.79498715       2.83648685       0.96739591      -0.07859588      -0.00817888      -0.14761847
W        1.00042966       2.85171283       2.80046969      -0.37245968       0.03637325      -0.03841520
W        3.69208499       3.78714932       3.72897362       0.57506281      -0.01387702      -0.02361076
W        5.59642120       5.67697971       5.54721202       0.08502062      -0.11289492       0.26944372
6
Lattice="0.040374446 3.757943647 3.682562602 3.73181283 0.022408286 3.684129354 3.658614463 3.725906879 0.019263841" Properties=species:S:1:pos:R:3:forces:R:3 generation=8 composition=W6 config_type=C15_aa source_path=V-Cr-Ti-W-Zr/Fixed_Engrads/vcrtiwzr_fin_engrads/job_gen_6-2024-12-23/W/W6_C15_idx_3033 date_processed=2025-02-12T16:53:56.062964 structure_index=3033 structure_id=21685 energy=-74.87312927246094 stress="-0.008335579128180972 -0.003821956905688984 0.01354669623699954 -0.003821956905688984 -0.0011771049305777013 0.0067874476876151404 0.01354669623699954 0.0067874476876151404 -0.00884451802381462" calculation_info="_JSON {\"calculation_id\": 21684, \"calculator\": \"vasp\", \"calculation_source_path\": \"\", \"error\": null, \"status\": \"completed\", \"gpu_count\": null, \"parameters\": {}, \"date_started\": null, \"gpu_memory_mb\": null, \"model_version\": null, \"date_completed\": null, \"runtime_seconds\": null}" parent_id=21685 step=8 variance=0.006698989775031805 loss=0.006698989775031805 pbc="T T T"
W        0.97090483       0.97467864       0.96448388      -0.25699082       0.12039963      -0.08961128
W        2.83125276       0.97195300       2.80207420      -0.03500789       0.14230627      -0.03959731
W        2.79723480       2.83901715       0.96606662      -0.11982395      -0.05028050      -0.00873242
W        0.99943934       2.85420564       2.80264951      -0.24648039      -0.00503856      -0.07870621
W        3.69214633       3.79093707       3.73166172       0.58173800      -0.04566088      -0.04466474
W        5.59792454       5.68235476       5.54891617       0.07656516      -0.16172595       0.26131201
6
Lattice="0.040374446 3.757943647 3.682562602 3.73181283 0.022408286 3.684129354 3.658614463 3.725906879 0.019263841" Properties=species:S:1:pos:R:3:forces:R:3 generation=8 composition=W6 config_type=C15_aa source_path=V-Cr-Ti-W-Zr/Fixed_Engrads/vcrtiwzr_fin_engrads/job_gen_6-2024-12-23/W/W6_C15_idx_3033 date_processed=2025-02-12T16:53:56.062964 structure_index=3033 structure_id=21685 energy=-74.86980590820312 stress="-0.008335579128180972 -0.003821956905688984 0.01354669623699954 -0.003821956905688984 -0.0011771049305777013 0.0067874476876151404 0.01354669623699954 0.0067874476876151404 -0.00884451802381462" calculation_info="_JSON {\"calculation_id\": 21684, \"calculator\": \"vasp\", \"calculation_source_path\": \"\", \"error\": null, \"status\": \"completed\", \"gpu_count\": null, \"parameters\": {}, \"date_started\": null, \"gpu_memory_mb\": null, \"model_version\": null, \"date_completed\": null, \"runtime_seconds\": null}" parent_id=21685 step=9 variance=0.005347744096070528 loss=0.005347744096070528 pbc="T T T"
W        0.97434445       0.97673579       0.96792580      -0.30818456       0.11541226      -0.13012135
W        2.83269810       0.96809505       2.80365297      -0.05732496       0.28965783      -0.06013320
W        2.79919639       2.84125424       0.96493046      -0.15384564      -0.08639929       0.11214814
W        0.99869598       2.85640945       2.80456767      -0.13797972      -0.04033754      -0.11207052
W        3.69218471       3.79430193       3.73405536       0.58820111      -0.07352719      -0.06322213
W        5.59926295       5.68709711       5.55051068       0.06913380      -0.20480618       0.25339895
6
Lattice="0.040374446 3.757943647 3.682562602 3.73181283 0.022408286 3.684129354 3.658614463 3.725906879 0.019263841" Properties=species:S:1:pos:R:3:forces:R:3 generation=8 composition=W6 config_type=C15_aa source_path=V-Cr-Ti-W-Zr/Fixed_Engrads/vcrtiwzr_fin_engrads/job_gen_6-2024-12-23/W/W6_C15_idx_3033 date_processed=2025-02-12T16:53:56.062964 structure_index=3033 structure_id=21685 energy=-74.86530303955078 stress="-0.008335579128180972 -0.003821956905688984 0.01354669623699954 -0.003821956905688984 -0.0011771049305777013 0.0067874476876151404 0.01354669623699954 0.0067874476876151404 -0.00884451802381462" calculation_info="_JSON {\"calculation_id\": 21684, \"calculator\": \"vasp\", \"calculation_source_path\": \"\", \"error\": null, \"status\": \"completed\", \"gpu_count\": null, \"parameters\": {}, \"date_started\": null, \"gpu_memory_mb\": null, \"model_version\": null, \"date_completed\": null, \"runtime_seconds\": null}" parent_id=21685 step=10 variance=0.005454832222312689 loss=0.005454832222312689 pbc="T T T"
W        0.97741740       0.97858354       0.97099882      -0.35411024       0.11061015      -0.16630411
W        2.83399609       0.96464696       2.80505899      -0.07755857       0.42104715      -0.07805598
W        2.80093709       2.84324657       0.96396400      -0.18354094      -0.11818354       0.21925855
W        0.99802594       2.85837844       2.80626973      -0.04141059      -0.07196044      -0.14108050
W        3.69220173       3.79731507       3.73619340       0.59420896      -0.09831044      -0.07975211
W        5.60045606       5.69131400       5.55197499       0.06241145      -0.24320288       0.24593425
6
Lattice="0.040374446 3.757943647 3.682562602 3.73181283 0.022408286 3.684129354 3.658614463 3.725906879 0.019263841" Properties=species:S:1:pos:R:3:forces:R:3 generation=8 composition=W6 config_type=C15_aa source_path=V-Cr-Ti-W-Zr/Fixed_Engrads/vcrtiwzr_fin_engrads/job_gen_6-2024-12-23/W/W6_C15_idx_3033 date_processed=2025-02-12T16:53:56.062964 structure_index=3033 structure_id=21685 energy=-74.86006927490234 stress="-0.008335579128180972 -0.003821956905688984 0.01354669623699954 -0.003821956905688984 -0.0011771049305777013 0.0067874476876151404 0.01354669623699954 0.0067874476876151404 -0.00884451802381462" calculation_info="_JSON {\"calculation_id\": 21684, \"calculator\": \"vasp\", \"calculation_source_path\": \"\", \"error\": null, \"status\": \"completed\", \"gpu_count\": null, \"parameters\": {}, \"date_started\": null, \"gpu_memory_mb\": null, \"model_version\": null, \"date_completed\": null, \"runtime_seconds\": null}" parent_id=21685 step=11 variance=0.004275772254914045 loss=0.004275772254914045 pbc="T T T"
W        0.98016748       0.98026089       0.97376559      -0.39548755       0.10566552      -0.19910726
W        2.83516281       0.96155424       2.80631997      -0.09535017       0.53805006      -0.09379020
W        2.80248711       2.84503238       0.96314817      -0.20880923      -0.14631540       0.31377238
W        0.99749209       2.86013048       2.80777115       0.04343834      -0.09950452      -0.16534795
W        3.69221192       3.80002642       3.73811298       0.59980041      -0.12037945      -0.09444135
W        5.60152488       5.69508413       5.55333242       0.05640814      -0.27751625       0.23891449
6
Lattice="0.040374446 3.757943647 3.682562602 3.73181283 0.022408286 3.684129354 3.658614463 3.725906879 0.019263841" Properties=species:S:1:pos:R:3:forces:R:3 generation=8 composition=W6 config_type=C15_aa source_path=V-Cr-Ti-W-Zr/Fixed_Engrads/vcrtiwzr_fin_engrads/job_gen_6-2024-12-23/W/W6_C15_idx_3033 date_processed=2025-02-12T16:53:56.062964 structure_index=3033 structure_id=21685 energy=-74.85443572998047 stress="-0.008335579128180972 -0.003821956905688984 0.01354669623699954 -0.003821956905688984 -0.0011771049305777013 0.0067874476876151404 0.01354669623699954 0.0067874476876151404 -0.00884451802381462" calculation_info="_JSON {\"calculation_id\": 21684, \"calculator\": \"vasp\", \"calculation_source_path\": \"\", \"error\": null, \"status\": \"completed\", \"gpu_count\": null, \"parameters\": {}, \"date_started\": null, \"gpu_memory_mb\": null, \"model_version\": null, \"date_completed\": null, \"runtime_seconds\": null}" parent_id=21685 step=12 variance=0.0032949212472885847 loss=0.0032949212472885847 pbc="T T T"
W        0.98263861       0.98178181       0.97626097      -0.43292865       0.10087144      -0.22885129
W        2.83620918       0.95879449       2.80745505      -0.11042047       0.64150542      -0.10755191
W        2.80387159       2.84663845       0.96246963      -0.22992182      -0.17117098       0.39645821
W        0.99714046       2.86169369       2.80910554       0.11667384      -0.12308322      -0.18535838
W        3.69219649       3.80246950       3.73983744       0.60537738      -0.13998775      -0.10741831
W        5.60248147       5.69845947       5.55456344       0.05121964      -0.30813488       0.23272164
6
Lattice="0.040374446 3.757943647 3.682562602 3.73181283 0.022408286 3.684129354 3.658614463 3.725906879 0.019263841" Properties=species:S:1:pos:R:3:forces:R:3 generation=8 composition=W6 config_type=C15_aa source_path=V-Cr-Ti-W-Zr/Fixed_Engrads/vcrtiwzr_fin_engrads/job_gen_6-2024-12-23/W/W6_C15_idx_3033 date_processed=2025-02-12T16:53:56.062964 structure_index=3033 structure_id=21685 energy=-74.84862670898437 stress="-0.008335579128180972 -0.003821956905688984 0.01354669623699954 -0.003821956905688984 -0.0011771049305777013 0.0067874476876151404 0.01354669623699954 0.0067874476876151404 -0.00884451802381462" calculation_info="_JSON {\"calculation_id\": 21684, \"calculator\": \"vasp\", \"calculation_source_path\": \"\", \"error\": null, \"status\": \"completed\", \"gpu_count\": null, \"parameters\": {}, \"date_started\": null, \"gpu_memory_mb\": null, \"model_version\": null, \"date_completed\": null, \"runtime_seconds\": null}" parent_id=21685 step=13 variance=0.0027914519887417555 loss=0.0027914519887417555 pbc="T T T"
W        0.98486534       0.98315778       0.97851268      -0.46677583       0.09644663      -0.25571817
W        2.83715129       0.95632068       2.80847946      -0.12356420       0.73379564      -0.11980969
W        2.80511601       2.84808664       0.96188409      -0.24818225      -0.19341013       0.46983355
W        0.99689302       2.86309770       2.81030271       0.18108055      -0.14376923      -0.20255902
W        3.69216302       3.80467497       3.74138972       0.61078441      -0.15751179      -0.11899052
W        5.60333996       5.70148742       5.55567507       0.04665739      -0.33555120       0.22724381
6
Lattice="0.040374446 3.757943647 3.682562602 3.73181283 0.022408286 3.684129354 3.658614463 3.725906879 0.019263841" Properties=species:S:1:pos:R:3:forces:R:3 generation=8 composition=W6 config_type=C15_aa source_path=V-Cr-Ti-W-Zr/Fixed_Engrads/vcrtiwzr_fin_engrads/job_gen_6-2024-12-23/W/W6_C15_idx_3033 date_processed=2025-02-12T16:53:56.062964 structure_index=3033 structure_id=21685 energy=-74.84278411865235 stress="-0.008335579128180972 -0.003821956905688984 0.01354669623699954 -0.003821956905688984 -0.0011771049305777013 0.0067874476876151404 0.01354669623699954 0.0067874476876151404 -0.00884451802381462" calculation_info="_JSON {\"calculation_id\": 21684, \"calculator\": \"vasp\", \"calculation_source_path\": \"\", \"error\": null, \"status\": \"completed\", \"gpu_count\": null, \"parameters\": {}, \"date_started\": null, \"gpu_memory_mb\": null, \"model_version\": null, \"date_completed\": null, \"runtime_seconds\": null}" parent_id=21685 step=14 variance=0.002512994222342968 loss=0.002512994222342968 pbc="T T T"
W        0.98687599       0.98440330       0.98054718      -0.49738088       0.09240812      -0.27997351
W        2.83800234       0.95409366       2.80940603      -0.13527501       0.81667423      -0.13087249
W        2.80623886       2.84939526       0.96136727      -0.26431328      -0.21345368       0.53557605
W        0.99670553       2.86436380       2.81138182       0.23845319      -0.16219644      -0.21769413
W        3.69211964       3.80666958       3.74279026       0.61591059      -0.17325100      -0.12937984
W        5.60411262       5.70420919       5.55668090       0.04260535      -0.36018115       0.22234397
6
Lattice="0.040374446 3.757943647 3.682562602 3.73181283 0.022408286 3.684129354 3.658614463 3.725906879 0.019263841" Properties=species:S:1:pos:R:3:forces:R:3 generation=8 composition=W6 config_type=C15_aa source_path=V-Cr-Ti-W-Zr/Fixed_Engrads/vcrtiwzr_fin_engrads/job_gen_6-2024-12-23/W/W6_C15_idx_3033 date_processed=2025-02-12T16:53:56.062964 structure_index=3033 structure_id=21685 energy=-74.83702545166015 stress="-0.008335579128180972 -0.003821956905688984 0.01354669623699954 -0.003821956905688984 -0.0011771049305777013 0.0067874476876151404 0.01354669623699954 0.0067874476876151404 -0.00884451802381462" calculation_info="_JSON {\"calculation_id\": 21684, \"calculator\": \"vasp\", \"calculation_source_path\": \"\", \"error\": null, \"status\": \"completed\", \"gpu_count\": null, \"parameters\": {}, \"date_started\": null, \"gpu_memory_mb\": null, \"model_version\": null, \"date_completed\": null, \"runtime_seconds\": null}" parent_id=21685 step=15 variance=0.0023386424873024225 loss=0.0023386424873024225 pbc="T T T"
W        0.98869454       0.98553207       0.98238810      -0.52507192       0.08872925      -0.30188969
W        2.83877310       0.95208287       2.81024561      -0.14581546       0.89138764      -0.14091846
W        2.80725464       2.85057994       0.96090601      -0.27871472      -0.23160735       0.59479094
W        0.99655652       2.86550846       2.81235705       0.28993192      -0.17874716      -0.23116390
W        3.69207156       3.80847648       3.74405629       0.62070429      -0.18742152      -0.13874181
W        5.60480956       5.70665991       5.55759327       0.03896587      -0.38234097       0.21792288
6
Lattice="0.040374446 3.757943647 3.682562602 3.73181283 0.022408286 3.684129354 3.658614463 3.725906879 0.019263841" Properties=species:S:1:pos:R:3:forces:R:3 generation=8 composition=W6 config_type=C15_aa source_path=V-Cr-Ti-W-Zr/Fixed_Engrads/vcrtiwzr_fin_engrads/job_gen_6-2024-12-23/W/W6_C15_idx_3033 date_processed=2025-02-12T16:53:56.062964 structure_index=3033 structure_id=21685 energy=-74.83141021728515 stress="-0.008335579128180972 -0.003821956905688984 0.01354669623699954 -0.003821956905688984 -0.0011771049305777013 0.0067874476876151404 0.01354669623699954 0.0067874476876151404 -0.00884451802381462" calculation_info="_JSON {\"calculation_id\": 21684, \"calculator\": \"vasp\", \"calculation_source_path\": \"\", \"error\": null, \"status\": \"completed\", \"gpu_count\": null, \"parameters\": {}, \"date_started\": null, \"gpu_memory_mb\": null, \"model_version\": null, \"date_completed\": null, \"runtime_seconds\": null}" parent_id=21685 step=16 variance=0.002218398731201887 loss=0.002218398731201887 pbc="T T T"
W        0.99034139       0.98655607       0.98405588      -0.55013943       0.08538093      -0.32170668
W        2.83947241       0.95026353       2.81100751      -0.15537512       0.95892555      -0.15008569
W        2.80817520       2.85165395       0.96049155      -0.29165441      -0.24809727       0.64830285
W        0.99643479       2.86654519       2.81323998       0.33631462      -0.19368127      -0.24323948
W        3.69202149       3.81011556       3.74520241       0.62515956      -0.20021267      -0.14719705
W        5.60543923       5.70886937       5.55842206       0.03569482      -0.40231529       0.21392615
6