8
Lattice="5.281648268 -0.345223369 -0.177581085 -0.427020238 4.873565345 -0.110646417 -0.022038743 0.31534422 5.026185682" Properties=species:S:1:pos:R:3:forces:R:3 generation=6 composition=W8 config_type=A15 source_path=V-Cr-Ti-W-Zr/Fixed_Engrads/vcrtiwzr_fin_engrads/job_gen_6-2024-12-23/W/W8_A15_idx_2989 date_processed=2025-02-12T16:54:04.217598 structure_index=2989 structure_id=21836 energy=-101.24028 stress="0.04326914966802142 -0.09448570028715775 -0.015769653402746744 -0.09448570028715775 -0.16822038001367395 0.02917007987338121 -0.015769653402746744 0.02917007987338121 -0.0508835036921792" calculation_info="_JSON {\"calculation_id\": 21835, \"calculator\": \"vasp\", \"calculation_source_path\": \"\", \"error\": null, \"status\": \"completed\", \"gpu_count\": null, \"parameters\": {}, \"date_started\": null, \"gpu_memory_mb\": null, \"model_version\": null, \"date_completed\": null, \"runtime_seconds\": null}" pbc="T T T"
W        0.00000000       0.00000000       0.00000000       0.00000000       0.00000000       0.00000000
W        2.41629000       2.42184000       2.36898000       0.00000000       0.00000000       0.00000000
W        1.08486000       2.66582000       4.92647000       0.11350600       0.20040700       0.01528100
W        3.74773000       2.17787000      -0.18851000      -0.11350600      -0.20040700      -0.01528100
W       -0.11777000       1.37606000       2.48543000      -0.16530300      -0.02202400      -0.01561200
W        4.95036000       3.46762000       2.25253000       0.16530300       0.02202400       0.01561200
W        2.20829000       4.77979000       1.05711000       0.09851800       0.03645400      -0.15712700
W        2.19727000       4.93746000       3.57020000      -0.09851800      -0.03645400       0.15712700
8
Lattice="5.281648268 -0.345223369 -0.177581085 -0.427020238 4.873565345 -0.110646417 -0.022038743 0.31534422 5.026185682" Properties=species:S:1:pos:R:3:forces:R:3 generation=8 composition=W8 config_type=A15_aa source_path=V-Cr-Ti-W-Zr/Fixed_Engrads/vcrtiwzr_fin_engrads/job_gen_6-2024-12-23/W/W8_A15_idx_2989 date_processed=2025-02-12T16:54:04.217598 structure_index=2989 structure_id=21836 energy=-101.24657592773437 stress="0.04326914966802142 -0.09448570028715775 -0.015769653402746744 -0.09448570028715775 -0.16822038001367395 0.02917007987338121 -0.015769653402746744 0.02917007987338121 -0.0508835036921792" calculation_info="_JSON {\"calculation_id\": 21835, \"calculator\": \"vasp\", \"calculation_source_path\": \"\", \"error\": null, \"status\": \"completed\", \"gpu_count\": null, \"parameters\": {}, \"date_started\": null, \"gpu_memory_mb\": null, \"model_version\": null, \"date_completed\": null, \"runtime_seconds\": null}" parent_id=21836 step=0 variance=0.22854256629943848 loss=0.22854256629943848 pbc="T T T"
W        0.00000000       0.00000000       0.00000000      -0.00004504       0.00001969       0.00001142
W        2.41629000       2.42184000       2.36898000       0.00007096       0.00005035      -0.00000052
W        1.08486000       2.66582000       4.92647000      -0.01935681       0.02500135      -0.00222512
W        3.74773000       2.17787000      -0.18851000       0.01931598      -0.02509301       0.00221709
W       -0.11777000       1.37606000       2.48543000      -0.03428414       0.19806522       0.03917726
W        4.95036000       3.46762000       2.25253000       0.03420507      -0.19805649      -0.03920211
W        2.20829000       4.77979000       1.05711000       0.13416925       0.02303613      -0.23266375
W        2.19727000       4.93746000       3.57020000      -0.13407531      -0.02302287       0.23268573
8
Lattice="5.281648268 -0.345223369 -0.177581085 -0.427020238 4.873565345 -0.110646417 -0.022038743 0.31534422 5.026185682" Properties=species:S:1:pos:R:3:forces:R:3 generation=8 composition=W8 config_type=A15_aa source_path=V-Cr-Ti-W-Zr/Fixed_Engrads/vcrtiwzr_fin_engrads/job_gen_6-2024-12-23/W/W8_A15_idx_2989 date_processed=2025-02-12T16:54:04.217598 structure_index=2989 structure_id=21836 energy=-101.231298828125 stress="0.04326914966802142 -0.09448570028715775 -0.015769653402746744 -0.09448570028715775 -0.16822038001367395 0.02917007987338121 -0.015769653402746744 0.02917007987338121 -0.0508835036921792" calculation_info="_JSON {\"calculation_id\": 21835, \"calculator\": \"vasp\", \"calculation_source_path\": \"\", \"error\": null, \"status\": \"completed\", \"gpu_count\": null, \"parameters\": {}, \"date_started\": null, \"gpu_memory_mb\": null, \"model_version\": null, \"date_completed\": null, \"runtime_seconds\": null}" parent_id=21836 step=1 variance=0.02939072623848915 loss=0.02939072623848915 pbc="T T T"
W       -0.01000000      -0.01000000       0.01000000       0.27940136       0.34033900      -0.01534019
W        2.40629000       2.41184000       2.37898000       0.22777534       0.34143835      -0.04686425
W        1.07486000       2.67582000       4.93647000       0.22887377      -0.13861319      -0.01237461
W        3.75773000       2.18787000      -0.17851000      -0.27639431      -0.19057536      -0.01083611
W       -0.10777000       1.38606000       2.49543000      -0.14053603      -0.33365625       0.04277862
W        4.96036000       3.45762000       2.26253000      -0.11042713       0.33670926      -0.07529825
W        2.21829000       4.78979000       1.04711000       0.02967167      -0.13455644       0.22694802
W        2.20727000       4.94746000       3.58020000      -0.23836470      -0.22108535      -0.10901320
8
Lattice="5.281648268 -0.345223369 -0.177581085 -0.427020238 4.873565345 -0.110646417 -0.022038743 0.31534422 5.026185682" Properties=species:S:1:pos:R:3:forces:R:3 generation=8 composition=W8 config_type=A15_aa source_path=V-Cr-Ti-W-Zr/Fixed_Engrads/vcrtiwzr_fin_engrads/job_gen_6-2024-12-23/W/W8_A15_idx_2989 date_processed=2025-02-12T16:54:04.217598 structure_index=2989 structure_id=21836 energy=-101.20090026855469 stress="0.04326914966802142 -0.09448570028715775 -0.015769653402746744 -0.09448570028715775 -0.16822038001367395 0.02917007987338121 -0.015769653402746744 0.02917007987338121 -0.0508835036921792" calculation_info="_JSON {\"calculation_id\": 21835, \"calculator\": \"vasp\", \"calculation_source_path\": \"\", \"error\": null, \"status\": \"completed\", \"gpu_count\": null, \"parameters\": {}, \"date_started\": null, \"gpu_memory_mb\": null, \"model_version\": null, \"date_completed\": null, \"runtime_seconds\": null}" parent_id=21836 step=2 variance=0.010183108039200306 loss=0.010183108039200306 pbc="T T T"
W       -0.01660229      -0.01569928       0.00927922       0.46860966       0.55592716       0.10067865
W        2.39985367       2.40971723       2.38555377       0.37551579       0.48669600      -0.08499936
W        1.06829250       2.68246998       4.94316945       0.39928767      -0.23366141      -0.01858305
W        3.76434964       2.19461006      -0.17180929      -0.47495824      -0.30448988      -0.01631409
W       -0.10106702       1.39145390       2.50213977      -0.21584937      -0.61274207      -0.01376735
W        4.96704137       3.45229490       2.26922870      -0.19857082       0.63605618      -0.15229970
W        2.22490264       4.79651751       1.04313534      -0.04333422      -0.21026418       0.38750070
W        2.21389170       4.95410855       3.58266336      -0.31070042      -0.31752163      -0.20221563
8
Lattice="5.281648268 -0.345223369 -0.177581085 -0.427020238 4.873565345 -0.110646417 -0.022038743 0.31534422 5.026185682" Properties=species:S:1:pos:R:3:forces:R:3 generation=8 composition=W8 config_type=A15_aa source_path=V-Cr-Ti-W-Zr/Fixed_Engrads/vcrtiwzr_fin_engrads/job_gen_6-2024-12-23/W/W8_A15_idx_2989 date_processed=2025-02-12T16:54:04.217598 structure_index=2989 structure_id=21836 energy=-101.167626953125 stress="0.04326914966802142 -0.09448570028715775 -0.015769653402746744 -0.09448570028715775 -0.16822038001367395 0.02917007987338121 -0.015769653402746744 0.02917007987338121 -0.0508835036921792" calculation_info="_JSON {\"calculation_id\": 21835, \"calculator\": \"vasp\", \"calculation_source_path\": \"\", \"error\": null, \"status\": \"completed\", \"gpu_count\": null, \"parameters\": {}, \"date_started\": null, \"gpu_memory_mb\": null, \"model_version\": null, \"date_completed\": null, \"runtime_seconds\": null}" parent_id=21836 step=3 variance=0.006080199033021927 loss=0.006080199033021927 pbc="T T T"
W       -0.02166617      -0.01986685       0.00870431       0.61414099       0.72216147       0.18911541
W        2.39493540       2.40854808       2.39062068       0.49043423       0.59041458      -0.11453833
W        1.06323935       2.68759730       4.94834842       0.53363883      -0.30293861      -0.02389226
W        3.76945197       2.19982751      -0.16662918      -0.63048536      -0.39631349      -0.01964601
W       -0.09588500       1.39543566       2.50732684      -0.27622563      -0.81865394      -0.05814549
W        4.97220270       3.44837796       2.27440595      -0.26471108       0.85944712      -0.21091883
W        2.22999093       4.80173123       1.04051440      -0.09981453      -0.26531610       0.48814249
W        2.21899608       4.95923636       3.58384268      -0.36697719      -0.38880110      -0.25011712
8
Lattice="5.281648268 -0.345223369 -0.177581085 -0.427020238 4.873565345 -0.110646417 -0.022038743 0.31534422 5.026185682" Properties=species:S:1:pos:R:3:forces:R:3 generation=8 composition=W8 config_type=A15_aa source_path=V-Cr-Ti-W-Zr/Fixed_Engrads/vcrtiwzr_fin_engrads/job_gen_6-2024-12-23/W/W8_A15_idx_2989 date_processed=2025-02-12T16:54:04.217598 structure_index=2989 structure_id=21836 energy=-101.13420104980469 stress="0.04326914966802142 -0.09448570028715775 -0.015769653402746744 -0.09448570028715775 -0.16822038001367395 0.02917007987338121 -0.015769653402746744 0.02917007987338121 -0.0508835036921792" calculation_info="_JSON {\"calculation_id\": 21835, \"calculator\": \"vasp\", \"calculation_source_path\": \"\", \"error\": null, \"status\": \"completed\", \"gpu_count\": null, \"parameters\": {}, \"date_started\": null, \"gpu_memory_mb\": null, \"model_version\": null, \"date_completed\": null, \"runtime_seconds\": null}" parent_id=21836 step=4 variance=0.004390457645058632 loss=0.004390457645058632 pbc="T T T"
W       -0.02579561      -0.02317658       0.00821092       0.73300922       0.85903978       0.26094061
W        2.39094380       2.40777751       2.39476690       0.58512384       0.67207068      -0.13890055
W        1.05910959       2.69179132       4.95259090       0.64553517      -0.35751206      -0.02855347
W        3.77362549       2.20410612      -0.16238572      -0.75950623      -0.47437531      -0.02174619
W       -0.09164003       1.39862322       2.51157580      -0.32699075      -0.98387814      -0.09485403
W        4.97642914       3.44524803       2.27864662      -0.31779987       1.03964460      -0.25846270
W        2.23414889       4.80600840       1.03856640      -0.14607283      -0.30887234       0.56014711
W        2.22317048       4.96343114       3.58448112      -0.41329852      -0.44611731      -0.27857077
8
Lattice="5.281648268 -0.345223369 -0.177581085 -0.427020238 4.873565345 -0.110646417 -0.022038743 0.31534422 5.026185682" Properties=species:S:1:pos:R:3:forces:R:3 generation=8 composition=W8 config_type=A15_aa source_path=V-Cr-Ti-W-Zr/Fixed_Engrads/vcrtiwzr_fin_engrads/job_gen_6-2024-12-23/W/W8_A15_idx_2989 date_processed=2025-02-12T16:54:04.217598 structure_index=2989 structure_id=21836 energy=-101.10165710449219 stress="0.04326914966802142 -0.09448570028715775 -0.015769653402746744 -0.09448570028715775 -0.16822038001367395 0.02917007987338121 -0.015769653402746744 0.02917007987338121 -0.0508835036921792" calculation_info="_JSON {\"calculation_id\": 21835, \"calculator\": \"vasp\", \"calculation_source_path\": \"\", \"error\": null, \"status\": \"completed\", \"gpu_count\": null, \"parameters\": {}, \"date_started\": null, \"gpu_memory_mb\": null, \"model_version\": null, \"date_completed\": null, \"runtime_seconds\": null}" parent_id=21836 step=5 variance=0.0034867245703935623 loss=0.0034867245703935623 pbc="T T T"
W       -0.02927426      -0.02591415       0.00777081       0.83324033       0.97550946       0.32132572
W        2.38759520       2.40722077       2.39826882       0.66559988       0.73947775      -0.15965100
W        1.05562423       2.69533265       4.95617687       0.74146283      -0.40225586      -0.03270577
W        3.77714974       2.20772677      -0.15879892      -0.86981088      -0.54250479      -0.02304890
W       -0.08805195       1.40127681       2.51516717      -0.37081909      -1.12185216      -0.12615757
W        4.98000062       3.44264579       2.28223087      -0.36196172       1.19056320      -0.29837155
W        2.23765753       4.80962738       1.03703705      -0.18513124      -0.34482938       0.61480612
W        2.22669435       4.96697310       3.58482384      -0.45258006      -0.49410805      -0.29619682
8
Lattice="5.281648268 -0.345223369 -0.177581085 -0.427020238 4.873565345 -0.110646417 -0.022038743 0.31534422 5.026185682" Properties=species:S:1:pos:R:3:forces:R:3 generation=8 composition=W8 config_type=A15_aa source_path=V-Cr-Ti-W-Zr/Fixed_Engrads/vcrtiwzr_fin_engrads/job_gen_6-2024-12-23/W/W8_A15_idx_2989 date_processed=2025-02-12T16:54:04.217598 structure_index=2989 structure_id=21836 energy=-101.07049255371093 stress="0.04326914966802142 -0.09448570028715775 -0.015769653402746744 -0.09448570028715775 -0.16822038001367395 0.02917007987338121 -0.015769653402746744 0.02917007987338121 -0.0508835036921792" calculation_info="_JSON {\"calculation_id\": 21835, \"calculator\": \"vasp\", \"calculation_source_path\": \"\", \"error\": null, \"status\": \"completed\", \"gpu_count\": null, \"parameters\": {}, \"date_started\": null, \"gpu_memory_mb\": null, \"model_version\": null, \"date_completed\": null, \"runtime_seconds\": null}" parent_id=21836 step=6 variance=0.00292982067912817 loss=0.00292982067912817 pbc="T T T"
W       -0.03226397      -0.02823349       0.00734399       0.91946876       1.07655692       0.37363011
W        2.38472922       2.40680469       2.40128560       0.73526728       0.79654312      -0.17768720
W        1.05262380       2.69838242       4.95926758       0.82516479      -0.43985033      -0.03645178
W        3.78018501       2.21085081      -0.15570747      -0.96586293      -0.60284710      -0.02380760
W       -0.08495948       1.40353705       2.51826247      -0.40925136      -1.23974240      -0.15353714
W        4.98307823       3.44043154       2.28531999      -0.39951554       1.31976962      -0.33278817
W        2.24067726       4.81274905       1.03579925      -0.21875091      -0.37524003       0.65760529
W        2.22972790       4.97002313       3.58498125      -0.48651990      -0.53518975      -0.30696338
8
Lattice="5.281648268 -0.345223369 -0.177581085 -0.427020238 4.873565345 -0.110646417 -0.022038743 0.31534422 5.026185682" Properties=species:S:1:pos:R:3:forces:R:3 generation=8 composition=W8 config_type=A15_aa source_path=V-Cr-Ti-W-Zr/Fixed_Engrads/vcrtiwzr_fin_engrads/job_gen_6-2024-12-23/W/W8_A15_idx_2989 date_processed=2025-02-12T16:54:04.217598 structure_index=2989 structure_id=21836 energy=-101.0409423828125 stress="0.04326914966802142 -0.09448570028715775 -0.015769653402746744 -0.09448570028715775 -0.16822038001367395 0.02917007987338121 -0.015769653402746744 0.02917007987338121 -0.0508835036921792" calculation_info="_JSON {\"calculation_id\": 21835, \"calculator\": \"vasp\", \"calculation_source_path\": \"\", \"error\": null, \"status\": \"completed\", \"gpu_count\": null, \"parameters\": {}, \"date_started\": null, \"gpu_memory_mb\": null, \"model_version\": null, \"date_completed\": null, \"runtime_seconds\": null}" parent_id=21836 step=7 variance=0.0025548827834427357 loss=0.0025548827834427357 pbc="T T T"
W       -0.03486829      -0.03022944       0.00693480       0.99462301       1.16535020       0.41949254
W        2.38224345       2.40648869       2.40391896       0.79632246       0.84564447      -0.19354835
W        1.05000605       2.70104396       4.96196676       0.89905930      -0.47197646      -0.03984383
W        3.78283417       2.21358237      -0.15300763      -1.05052388      -0.65680420      -0.02417693
W       -0.08225880       1.40549145       2.52096566      -0.44329348      -1.34198010      -0.17776275
W        4.98576549       3.43851864       2.28801772      -0.43191904       1.43201196      -0.36284968
W        2.24331129       4.81547709       1.03477873      -0.24806681      -0.40137982       0.69174850
W        2.23237406       4.97268458       3.58501562      -0.51620167      -0.57086641      -0.31305948
8
Lattice="5.281648268 -0.345223369 -0.177581085 -0.427020238 4.873565345 -0.110646417 -0.022038743 0.31534422 5.026185682" Properties=species:S:1:pos:R:3:forces:R:3 generation=8 composition=W8 config_type=A15_aa source_path=V-Cr-Ti-W-Zr/Fixed_Engrads/vcrtiwzr_fin_engrads/job_gen_6-2024-12-23/W/W8_A15_idx_2989 date_processed=2025-02-12T16:54:04.217598 structure_index=2989 structure_id=21836 energy=-101.01310729980469 stress="0.04326914966802142 -0.09448570028715775 -0.015769653402746744 -0.09448570028715775 -0.16822038001367395 0.02917007987338121 -0.015769653402746744 0.02917007987338121 -0.0508835036921792" calculation_info="_JSON {\"calculation_id\": 21835, \"calculator\": \"vasp\", \"calculation_source_path\": \"\", \"error\": null, \"status\": \"completed\", \"gpu_count\": null, \"parameters\": {}, \"date_started\": null, \"gpu_memory_mb\": null, \"model_version\": null, \"date_completed\": null, \"runtime_seconds\": null}" parent_id=21836 step=8 variance=0.0022866646759212017 loss=0.0022866646759212017 pbc="T T T"
W       -0.03715854      -0.03196604       0.00655246       1.06076145       1.24408531       0.45994776
W        2.38006663       2.40624894       2.40623903       0.85029042       0.88834447      -0.20759305
W        1.04770035       2.70338878       4.96434630       0.96481514      -0.49974927      -0.04292463
W        3.78516839       2.21599349      -0.15062749      -1.12578416      -0.70536029      -0.02427806
W       -0.07987802       1.40719898       2.52334868      -0.47365022      -1.43155503      -0.19931141
W        4.98813415       3.43684872       2.29039594      -0.46018356       1.53048873      -0.38932127
W        2.24563091       4.81788346       1.03392691      -0.27385962      -0.42410460       0.71929538
W        2.23470402       4.97502894       3.58496358      -0.54238939      -0.60214895      -0.31581479
8
Lattice="5.281648268 -0.345223369 -0.177581085 -0.427020238 4.873565345 -0.110646417 -0.022038743 0.31534422 5.026185682" Properties=species:S:1:pos:R:3:forces:R:3 generation=8 composition=W8 config_type=A15_aa source_path=V-Cr-Ti-W-Zr/Fixed_Engrads/vcrtiwzr_fin_engrads/job_gen_6-2024-12-23/W/W8_A15_idx_2989 date_processed=2025-02-12T16:54:04.217598 structure_index=2989 structure_id=21836 energy=-100.98703002929688 stress="0.04326914966802142 -0.09448570028715775 -0.015769653402746744 -0.09448570028715775 -0.16822038001367395 0.02917007987338121 -0.015769653402746744 0.02917007987338121 -0.0508835036921792" calculation_info="_JSON {\"calculation_id\": 21835, \"calculator\": \"vasp\", \"calculation_source_path\": \"\", \"error\": null, \"status\": \"completed\", \"gpu_count\": null, \"parameters\": {}, \"date_started\": null, \"gpu_memory_mb\": null, \"model_version\": null, \"date_completed\": null, \"runtime_seconds\": null}" parent_id=21836 step=9 variance=0.00208630645647645 loss=0.00208630645647645 pbc="T T T"
W       -0.03918635      -0.03348789       0.00619485       1.11936569       1.31432068       0.49589390
W        2.37814774       2.40607048       2.40829764       0.89828080       0.92574596      -0.22011125
W        1.04565515       2.70546913       4.96645873       1.02368104      -0.52397454      -0.04573650
W        3.78723960       2.21813680      -0.14851449      -1.19309306      -0.74923551      -0.02418171
W       -0.07776454       1.40870216       2.52546421      -0.50086570      -1.51061106      -0.21860552
W        4.99023665       3.43537986       2.29250719      -0.48501635       1.61751616      -0.41279489
W        2.24768825       4.82002087       1.03321076      -0.29671749      -0.44401255       0.74159878
W        2.23676986       4.97710850       3.58484824      -0.56563509      -0.62974918      -0.31606290
8
Lattice="5.281648268 -0.345223369 -0.177581085 -0.427020238 4.873565345 -0.110646417 -0.022038743 0.31534422 5.026185682" Properties=species:S:1:pos:R:3:forces:R:3 generation=8 composition=W8 config_type=A15_aa source_path=V-Cr-Ti-W-Zr/Fixed_Engrads/vcrtiwzr_fin_engrads/job_gen_6-2024-12-23/W/W8_A15_idx_2989 date_processed=2025-02-12T16:54:04.217598 structure_index=2989 structure_id=21836 energy=-100.9626953125 stress="0.04326914966802142 -0.09448570028715775 -0.015769653402746744 -0.09448570028715775 -0.16822038001367395 0.02917007987338121 -0.015769653402746744 0.02917007987338121 -0.0508835036921792" calculation_info="_JSON {\"calculation_id\": 21835, \"calculator\": \"vasp\", \"calculation_source_path\": \"\", \"error\": null, \"status\": \"completed\", \"gpu_count\": null, \"parameters\": {}, \"date_started\": null, \"gpu_memory_mb\": null, \"model_version\": null, \"date_completed\": null, \"runtime_seconds\": null}" parent_id=21836 step=10 variance=0.0019317634869366884 loss=0.0019317634869366884 pbc="T T T"
W       -0.04099147      -0.03483045       0.00584679       1.17157531       1.37727571       0.52822554
W        2.37644768       2.40594359       2.41013390       0.94113767       0.95863599      -0.23133180
W        1.04383129       2.70732469       4.96834406       1.07661366      -0.54524785      -0.04830191
W        3.78908732       2.22005248      -0.14662863      -1.25356817      -0.78901160      -0.02393962
W       -0.07587832       1.41003302       2.52735232      -0.52533275      -1.58071923      -0.23606625
W        4.99211287       3.43408051       2.29439147      -0.50697863       1.69482541      -0.43383017
W        2.24952267       4.82192946       1.03260516      -0.31707105      -0.46155542       0.75968134
W        2.23861110       4.97896303       3.58468629      -0.58637607      -0.65420294      -0.31443709
8
Lattice="5.281648268 -0.345223369 -0.177581085 -0.427020238 4.873565345 -0.110646417 -0.022038743 0.31534422 5.026185682" Properties=species:S:1:pos:R:3:forces:R:3 generation=8 composition=W8 config_type=A15_aa source_path=V-Cr-Ti-W-Zr/Fixed_Engrads/vcrtiwzr_fin_engrads/job_gen_6-2024-12-23/W/W8_A15_idx_2989 date_processed=2025-02-12T16:54:04.217598 structure_index=2989 structure_id=21836 energy=-100.9400390625 stress="0.04326914966802142 -0.09448570028715775 -0.015769653402746744 -0.09448570028715775 -0.16822038001367395 0.02917007987338121 -0.015769653402746744 0.02917007987338121 -0.0508835036921792" calculation_info="_JSON {\"calculation_id\": 21835, \"calculator\": \"vasp\", \"calculation_source_path\": \"\", \"error\": null, \"status\": \"completed\", \"gpu_count\": null, \"parameters\": {}, \"date_started\": null, \"gpu_memory_mb\": null, \"model_version\": null, \"date_completed\": null, \"runtime_seconds\": null}" parent_id=21836 step=11 variance=0.001809458713978529 loss=0.001809458713978529 pbc="T T T"
W       -0.04260478      -0.03601968       0.00550461       1.21825910       1.43389821       0.55752814
W        2.37493578       2.40585764       2.41177840       0.97955310       0.98771131      -0.24143991
W        1.04219801       2.70898666       4.97003369       1.12437367      -0.56403059      -0.05064379
W        3.79074255       2.22177194      -0.14493852      -1.30808938      -0.82514954      -0.02359376
W       -0.07418796       1.41121635       2.52904444      -0.54739630      -1.64317513      -0.25195870
W        4.99379413       3.43292626       2.29608017      -0.52648818       1.76380754      -0.45279989
W        2.25116498       4.82364072       1.03209217      -0.33526272      -0.47709218       0.77428037
W        2.24025883       4.98062371       3.58448993      -0.60494918      -0.67597020      -0.31137234
8
Lattice="5.281648268 -0.345223369 -0.177581085 -0.427020238 4.873565345 -0.110646417 -0.022038743 0.31534422 5.026185682" Properties=species:S:1:pos:R:3:forces:R:3 generation=8 composition=W8 config_type=A15_aa source_path=V-Cr-Ti-W-Zr/Fixed_Engrads/vcrtiwzr_fin_engrads/job_gen_6-2024-12-23/W/W8_A15_idx_2989 date_processed=2025-02-12T16:54:04.217598 structure_index=2989 structure_id=21836 energy=-100.91899719238282 stress="0.04326914966802142 -0.09448570028715775 -0.015769653402746744 -0.09448570028715775 -0.16822038001367395 0.02917007987338121 -0.015769653402746744 0.02917007987338121 -0.0508835036921792" calculation_info="_JSON {\"calculation_id\": 21835, \"calculator\": \"vasp\", \"calculation_source_path\": \"\", \"error\": null, \"status\": \"completed\", \"gpu_count\": null, \"parameters\": {}, \"date_started\": null, \"gpu_memory_mb\": null, \"model_version\": null, \"date_completed\": null, \"runtime_seconds\": null}" parent_id=21836 step=12 variance=0.0017107841558754444 loss=0.0017107841558754444 pbc="T T T"
W       -0.04405130      -0.03707674       0.00516104       1.26014638       1.48493338       0.58431548
W        2.37358755       2.40580474       2.41325595       1.01406884       1.01351035      -0.25055996
W        1.04073061       2.71048015       4.97155293       1.16756892      -0.58067477      -0.05279569
W        3.79223020       2.22332049      -0.14341883      -1.35735714      -0.85803032      -0.02317488
W       -0.07266813       1.41227189       2.53056591      -0.56733805      -1.69895577      -0.26654351
W        4.99530565       3.43189755       2.29759857      -0.54388082       1.82552111      -0.47002688
W        2.25264007       4.82518006       1.03165788      -0.35157517      -0.49091071       0.78593731
W        2.24173793       4.98211565       3.58426624      -0.62163287      -0.69539320      -0.30715194
8
Lattice="5.281648268 -0.345223369 -0.177581085 -0.427020238 4.873565345 -0.110646417 -0.022038743 0.31534422 5.026185682" Properties=species:S:1:pos:R:3:forces:R:3 generation=8 composition=W8 config_type=A15_aa source_path=V-Cr-Ti-W-Zr/Fixed_Engrads/vcrtiwzr_fin_engrads/job_gen_6-2024-12-23/W/W8_A15_idx_2989 date_processed=2025-02-12T16:54:04.217598 structure_index=2989 structure_id=21836 energy=-100.89950256347656 stress="0.04326914966802142 -0.09448570028715775 -0.015769653402746744 -0.09448570028715775 -0.16822038001367395 0.02917007987338121 -0.015769653402746744 0.02917007987338121 -0.0508835036921792" calculation_info="_JSON {\"calculation_id\": 21835, \"calculator\": \"vasp\", \"calculation_source_path\": \"\", \"error\": null, \"status\": \"completed\", \"gpu_count\": null, \"parameters\": {}, \"date_started\": null, \"gpu_memory_mb\": null, \"model_version\": null, \"date_completed\": null, \"runtime_seconds\": null}" parent_id=21836 step=13 variance=0.0016299448907375336 loss=0.0016299448907375336 pbc="T T T"
W       -0.04535147      -0.03801882       0.00481535       1.29782784       1.53104198       0.60894144
W        2.37238302       2.40578165       2.41458710       1.04512846       1.03639925      -0.25883701
W        1.03940879       2.71182575       4.97292256       1.20672286      -0.59548342      -0.05475955
W        3.79357075       2.22471893      -0.14204880      -1.40197873      -0.88798219      -0.02270359
W       -0.07129805       1.41321576       2.53193753      -0.58536947      -1.74887443      -0.27998036
W        4.99666814       3.43097858       2.29896745      -0.55943990       1.88086855      -0.48574275
W        2.25396853       4.82656835       1.03129039      -0.36623105      -0.50322205       0.79512483
W        2.24306883       4.98345949       3.58402240      -0.63666004      -0.71274775      -0.30204314
8
Lattice="5.281648268 -0.345223369 -0.177581085 -0.427020238 4.873565345 -0.110646417 -0.022038743 0.31534422 5.026185682" Properties=species:S:1:pos:R:3:forces:R:3 generation=8 composition=W8 config_type=A15_aa source_path=V-Cr-Ti-W-Zr/Fixed_Engrads/vcrtiwzr_fin_engrads/job_gen_6-2024-12-23/W/W8_A15_idx_2989 date_processed=2025-02-12T16:54:04.217598 structure_index=2989 structure_id=21836 energy=-100.88148193359375 stress="0.04326914966802142 -0.09448570028715775 -0.015769653402746744 -0.09448570028715775 -0.16822038001367395 0.02917007987338121 -0.015769653402746744 0.02917007987338121 -0.0508835036921792" calculation_info="_JSON {\"calculation_id\": 21835, \"calculator\": \"vasp\", \"calculation_source_path\": \"\", \"error\": null, \"status\": \"completed\", \"gpu_count\": null, \"parameters\": {}, \"date_started\": null, \"gpu_memory_mb\": null, \"model_version\": null, \"date_completed\": null, \"runtime_seconds\": null}" parent_id=21836 step=14 variance=0.001562820514664054 loss=0.001562820514664054 pbc="T T T"
W       -0.04652242      -0.03885932       0.00448125       1.33178055       1.57274950       0.63143831
W        2.37130482       2.40578387       2.41578868       1.07312107       1.05674338      -0.26632249
W        1.03821558       2.71304067       4.97415992       1.24225605      -0.60868609      -0.05656674
W        3.79478132       2.22598477      -0.14081104      -1.44244850      -0.91528118      -0.02221064
W       -0.07006033       1.41406140       2.53317668      -0.60169977      -1.79361987      -0.29229778
W        4.99789892       3.43015609       2.30020415      -0.57337588       1.93059921      -0.50004041
W        2.25516759       4.82782309       1.03098061      -0.37943810      -0.51423281       0.80222160
W        2.24426882       4.98467243       3.58376277      -0.65019536      -0.72827196      -0.29622167
8