2
Lattice="-0.27868392 3.071816414 2.973084956 3.188463644 0.114816457 2.933754282 2.75016727 3.248719899 0.089802974" Properties=species:S:1:pos:R:3:forces:R:3 batch_id=T generation=6 composition=V2 config_type=dia source_path=V-Cr-Ti-W-Zr/Fixed_Engrads/vcrtiwzr_fin_engrads/job_gen_6-2024-12-23/V/V2_dia_idx_2888 temperature=T date_processed=2025-01-03T17:39:59.554067 structure_type=T structure_index=2888 adversarial_step=T structure_id=7913 energy=-12.173714 stress="0.07178483227559028 0.004777931409445767 -0.004385178206190437 0.004777931409445767 0.07148254974711463 -0.0017087441949021854 -0.004385178206190437 -0.0017087441949021854 0.09081432603063982" calculation_info="_JSON {\"calculation_id\": 7913, \"calculator\": \"vasp\", \"calculation_source_path\": \"\", \"error\": null, \"status\": \"completed\", \"gpu_count\": null, \"parameters\": {}, \"date_started\": null, \"gpu_memory_mb\": null, \"model_version\": null, \"date_completed\": null, \"runtime_seconds\": null}" pbc="T T T"
V        0.00000000       0.00000000       0.00000000      -0.00344500       0.07592900      -0.05101800
V        1.41499000       1.60884000       1.49916000       0.00344500      -0.07592900       0.05101800
2
Lattice="-0.27868392 3.071816414 2.973084956 3.188463644 0.114816457 2.933754282 2.75016727 3.248719899 0.089802974" Properties=species:S:1:pos:R:3:forces:R:3 batch_id=T generation=8 composition=V2 config_type=dia_aa source_path=V-Cr-Ti-W-Zr/Fixed_Engrads/vcrtiwzr_fin_engrads/job_gen_6-2024-12-23/V/V2_dia_idx_2888 temperature=T date_processed=2025-01-03T17:39:59.554067 structure_type=T structure_index=2888 adversarial_step=T structure_id=7913 energy=-12.166517066955567 stress="0.07178483227559028 0.004777931409445767 -0.004385178206190437 0.004777931409445767 0.07148254974711463 -0.0017087441949021854 -0.004385178206190437 -0.0017087441949021854 0.09081432603063982" calculation_info="_JSON {\"calculation_id\": 7913, \"calculator\": \"vasp\", \"calculation_source_path\": \"\", \"error\": null, \"status\": \"completed\", \"gpu_count\": null, \"parameters\": {}, \"date_started\": null, \"gpu_memory_mb\": null, \"model_version\": null, \"date_completed\": null, \"runtime_seconds\": null}" parent_id=7913 step=0 variance=0.3086848556995392 loss=0.3086848556995392 pbc="T T T"
V        0.00000000       0.00000000       0.00000000      -0.02487238       0.07270093      -0.08785392
V        1.41499000       1.60884000       1.49916000       0.02487237      -0.07270090       0.08785395
2
Lattice="-0.27868392 3.071816414 2.973084956 3.188463644 0.114816457 2.933754282 2.75016727 3.248719899 0.089802974" Properties=species:S:1:pos:R:3:forces:R:3 batch_id=T generation=8 composition=V2 config_type=dia_aa source_path=V-Cr-Ti-W-Zr/Fixed_Engrads/vcrtiwzr_fin_engrads/job_gen_6-2024-12-23/V/V2_dia_idx_2888 temperature=T date_processed=2025-01-03T17:39:59.554067 structure_type=T structure_index=2888 adversarial_step=T structure_id=7913 energy=-12.164154815673829 stress="0.07178483227559028 0.004777931409445767 -0.004385178206190437 0.004777931409445767 0.07148254974711463 -0.0017087441949021854 -0.004385178206190437 -0.0017087441949021854 0.09081432603063982" calculation_info="_JSON {\"calculation_id\": 7913, \"calculator\": \"vasp\", \"calculation_source_path\": \"\", \"error\": null, \"status\": \"completed\", \"gpu_count\": null, \"parameters\": {}, \"date_started\": null, \"gpu_memory_mb\": null, \"model_version\": null, \"date_completed\": null, \"runtime_seconds\": null}" parent_id=7913 step=1 variance=0.6310162544250488 loss=0.6310162544250488 pbc="T T T"
V       -0.01000000      -0.01000000       0.01000000      -0.03560220       0.06132799      -0.07265817
V        1.42499000       1.61884000       1.48916000       0.03560218      -0.06132800       0.07265817
2
Lattice="-0.27868392 3.071816414 2.973084956 3.188463644 0.114816457 2.933754282 2.75016727 3.248719899 0.089802974" Properties=species:S:1:pos:R:3:forces:R:3 batch_id=T generation=8 composition=V2 config_type=dia_aa source_path=V-Cr-Ti-W-Zr/Fixed_Engrads/vcrtiwzr_fin_engrads/job_gen_6-2024-12-23/V/V2_dia_idx_2888 temperature=T date_processed=2025-01-03T17:39:59.554067 structure_type=T structure_index=2888 adversarial_step=T structure_id=7913 energy=-12.163086128234863 stress="0.07178483227559028 0.004777931409445767 -0.004385178206190437 0.004777931409445767 0.07148254974711463 -0.0017087441949021854 -0.004385178206190437 -0.0017087441949021854 0.09081432603063982" calculation_info="_JSON {\"calculation_id\": 7913, \"calculator\": \"vasp\", \"calculation_source_path\": \"\", \"error\": null, \"status\": \"completed\", \"gpu_count\": null, \"parameters\": {}, \"date_started\": null, \"gpu_memory_mb\": null, \"model_version\": null, \"date_completed\": null, \"runtime_seconds\": null}" parent_id=7913 step=2 variance=0.741854190826416 loss=0.741854190826416 pbc="T T T"
V       -0.01966648      -0.01570851       0.01907414      -0.04386023       0.04461448      -0.05663283
V        1.43472314       1.62562145       1.48021907       0.04386022      -0.04461448       0.05663283
2
Lattice="-0.27868392 3.071816414 2.973084956 3.188463644 0.114816457 2.933754282 2.75016727 3.248719899 0.089802974" Properties=species:S:1:pos:R:3:forces:R:3 batch_id=T generation=8 composition=V2 config_type=dia_aa source_path=V-Cr-Ti-W-Zr/Fixed_Engrads/vcrtiwzr_fin_engrads/job_gen_6-2024-12-23/V/V2_dia_idx_2888 temperature=T date_processed=2025-01-03T17:39:59.554067 structure_type=T structure_index=2888 adversarial_step=T structure_id=7913 energy=-12.163071250915527 stress="0.07178483227559028 0.004777931409445767 -0.004385178206190437 0.004777931409445767 0.07148254974711463 -0.0017087441949021854 -0.004385178206190437 -0.0017087441949021854 0.09081432603063982" calculation_info="_JSON {\"calculation_id\": 7913, \"calculator\": \"vasp\", \"calculation_source_path\": \"\", \"error\": null, \"status\": \"completed\", \"gpu_count\": null, \"parameters\": {}, \"date_started\": null, \"gpu_memory_mb\": null, \"model_version\": null, \"date_completed\": null, \"runtime_seconds\": null}" parent_id=7913 step=3 variance=0.7989808917045593 loss=0.7989808917045593 pbc="T T T"
V       -0.02877679      -0.01650681       0.02673248      -0.04518510       0.02456088      -0.04343659
V        1.44394693       1.62690487       1.47275291       0.04518508      -0.02456089       0.04343659
2
Lattice="-0.27868392 3.071816414 2.973084956 3.188463644 0.114816457 2.933754282 2.75016727 3.248719899 0.089802974" Properties=species:S:1:pos:R:3:forces:R:3 batch_id=T generation=8 composition=V2 config_type=dia_aa source_path=V-Cr-Ti-W-Zr/Fixed_Engrads/vcrtiwzr_fin_engrads/job_gen_6-2024-12-23/V/V2_dia_idx_2888 temperature=T date_processed=2025-01-03T17:39:59.554067 structure_type=T structure_index=2888 adversarial_step=T structure_id=7913 energy=-12.163393020629883 stress="0.07178483227559028 0.004777931409445767 -0.004385178206190437 0.004777931409445767 0.07148254974711463 -0.0017087441949021854 -0.004385178206190437 -0.0017087441949021854 0.09081432603063982" calculation_info="_JSON {\"calculation_id\": 7913, \"calculator\": \"vasp\", \"calculation_source_path\": \"\", \"error\": null, \"status\": \"completed\", \"gpu_count\": null, \"parameters\": {}, \"date_started\": null, \"gpu_memory_mb\": null, \"model_version\": null, \"date_completed\": null, \"runtime_seconds\": null}" parent_id=7913 step=4 variance=0.8414884805679321 loss=0.8414884805679321 pbc="T T T"
V       -0.03740111      -0.01414526       0.03303806      -0.04074106       0.00372294      -0.03374175
V        1.45256185       1.62464164       1.46651000       0.04074106      -0.00372296       0.03374177
2
Lattice="-0.27868392 3.071816414 2.973084956 3.188463644 0.114816457 2.933754282 2.75016727 3.248719899 0.089802974" Properties=species:S:1:pos:R:3:forces:R:3 batch_id=T generation=8 composition=V2 config_type=dia_aa source_path=V-Cr-Ti-W-Zr/Fixed_Engrads/vcrtiwzr_fin_engrads/job_gen_6-2024-12-23/V/V2_dia_idx_2888 temperature=T date_processed=2025-01-03T17:39:59.554067 structure_type=T structure_index=2888 adversarial_step=T structure_id=7913 energy=-12.163618087768555 stress="0.07178483227559028 0.004777931409445767 -0.004385178206190437 0.004777931409445767 0.07148254974711463 -0.0017087441949021854 -0.004385178206190437 -0.0017087441949021854 0.09081432603063982" calculation_info="_JSON {\"calculation_id\": 7913, \"calculator\": \"vasp\", \"calculation_source_path\": \"\", \"error\": null, \"status\": \"completed\", \"gpu_count\": null, \"parameters\": {}, \"date_started\": null, \"gpu_memory_mb\": null, \"model_version\": null, \"date_completed\": null, \"runtime_seconds\": null}" parent_id=7913 step=5 variance=0.8651186227798462 loss=0.8651186227798462 pbc="T T T"
V       -0.04551364      -0.01018813       0.03812291      -0.03248422      -0.01629153      -0.02712708
V        1.46053863       1.62036436       1.46131950       0.03248423       0.01629153       0.02712708
2
Lattice="-0.27868392 3.071816414 2.973084956 3.188463644 0.114816457 2.933754282 2.75016727 3.248719899 0.089802974" Properties=species:S:1:pos:R:3:forces:R:3 batch_id=T generation=8 composition=V2 config_type=dia_aa source_path=V-Cr-Ti-W-Zr/Fixed_Engrads/vcrtiwzr_fin_engrads/job_gen_6-2024-12-23/V/V2_dia_idx_2888 temperature=T date_processed=2025-01-03T17:39:59.554067 structure_type=T structure_index=2888 adversarial_step=T structure_id=7913 energy=-12.163554000854493 stress="0.07178483227559028 0.004777931409445767 -0.004385178206190437 0.004777931409445767 0.07148254974711463 -0.0017087441949021854 -0.004385178206190437 -0.0017087441949021854 0.09081432603063982" calculation_info="_JSON {\"calculation_id\": 7913, \"calculator\": \"vasp\", \"calculation_source_path\": \"\", \"error\": null, \"status\": \"completed\", \"gpu_count\": null, \"parameters\": {}, \"date_started\": null, \"gpu_memory_mb\": null, \"model_version\": null, \"date_completed\": null, \"runtime_seconds\": null}" parent_id=7913 step=6 variance=0.8627357482910156 loss=0.8627357482910156 pbc="T T T"
V       -0.05272991      -0.00538292       0.04218696      -0.02220358      -0.03397443      -0.02327361
V        1.46758525       1.61525534       1.45723679       0.02220360       0.03397443       0.02327363
2
Lattice="-0.27868392 3.071816414 2.973084956 3.188463644 0.114816457 2.933754282 2.75016727 3.248719899 0.089802974" Properties=species:S:1:pos:R:3:forces:R:3 batch_id=T generation=8 composition=V2 config_type=dia_aa source_path=V-Cr-Ti-W-Zr/Fixed_Engrads/vcrtiwzr_fin_engrads/job_gen_6-2024-12-23/V/V2_dia_idx_2888 temperature=T date_processed=2025-01-03T17:39:59.554067 structure_type=T structure_index=2888 adversarial_step=T structure_id=7913 energy=-12.163212776184082 stress="0.07178483227559028 0.004777931409445767 -0.004385178206190437 0.004777931409445767 0.07148254974711463 -0.0017087441949021854 -0.004385178206190437 -0.0017087441949021854 0.09081432603063982" calculation_info="_JSON {\"calculation_id\": 7913, \"calculator\": \"vasp\", \"calculation_source_path\": \"\", \"error\": null, \"status\": \"completed\", \"gpu_count\": null, \"parameters\": {}, \"date_started\": null, \"gpu_memory_mb\": null, \"model_version\": null, \"date_completed\": null, \"runtime_seconds\": null}" parent_id=7913 step=7 variance=0.8437482714653015 loss=0.8437482714653015 pbc="T T T"
V       -0.05851922      -0.00051264       0.04530707      -0.01200077      -0.04815958      -0.02151972
V        1.47340717       1.61037367       1.45410788       0.01200076       0.04815958       0.02151973
2
Lattice="-0.27868392 3.071816414 2.973084956 3.188463644 0.114816457 2.933754282 2.75016727 3.248719899 0.089802974" Properties=species:S:1:pos:R:3:forces:R:3 batch_id=T generation=8 composition=V2 config_type=dia_aa source_path=V-Cr-Ti-W-Zr/Fixed_Engrads/vcrtiwzr_fin_engrads/job_gen_6-2024-12-23/V/V2_dia_idx_2888 temperature=T date_processed=2025-01-03T17:39:59.554067 structure_type=T structure_index=2888 adversarial_step=T structure_id=7913 energy=-12.16270408630371 stress="0.07178483227559028 0.004777931409445767 -0.004385178206190437 0.004777931409445767 0.07148254974711463 -0.0017087441949021854 -0.004385178206190437 -0.0017087441949021854 0.09081432603063982" calculation_info="_JSON {\"calculation_id\": 7913, \"calculator\": \"vasp\", \"calculation_source_path\": \"\", \"error\": null, \"status\": \"completed\", \"gpu_count\": null, \"parameters\": {}, \"date_started\": null, \"gpu_memory_mb\": null, \"model_version\": null, \"date_completed\": null, \"runtime_seconds\": null}" parent_id=7913 step=8 variance=0.8227938413619995 loss=0.8227938413619995 pbc="T T T"
V       -0.06269218       0.00398992       0.04758504      -0.00278832      -0.05831430      -0.02148420
V        1.47772564       1.60596009       1.45187347       0.00278829       0.05831430       0.02148419
2
Lattice="-0.27868392 3.071816414 2.973084956 3.188463644 0.114816457 2.933754282 2.75016727 3.248719899 0.089802974" Properties=species:S:1:pos:R:3:forces:R:3 batch_id=T generation=8 composition=V2 config_type=dia_aa source_path=V-Cr-Ti-W-Zr/Fixed_Engrads/vcrtiwzr_fin_engrads/job_gen_6-2024-12-23/V/V2_dia_idx_2888 temperature=T date_processed=2025-01-03T17:39:59.554067 structure_type=T structure_index=2888 adversarial_step=T structure_id=7913 energy=-12.162155914306641 stress="0.07178483227559028 0.004777931409445767 -0.004385178206190437 0.004777931409445767 0.07148254974711463 -0.0017087441949021854 -0.004385178206190437 -0.0017087441949021854 0.09081432603063982" calculation_info="_JSON {\"calculation_id\": 7913, \"calculator\": \"vasp\", \"calculation_source_path\": \"\", \"error\": null, \"status\": \"completed\", \"gpu_count\": null, \"parameters\": {}, \"date_started\": null, \"gpu_memory_mb\": null, \"model_version\": null, \"date_completed\": null, \"runtime_seconds\": null}" parent_id=7913 step=9 variance=0.8067144155502319 loss=0.8067144155502319 pbc="T T T"
V       -0.06538138       0.00787645       0.04907084       0.00501800      -0.06468470      -0.02266527
V        1.48053974       1.60211827       1.45037372      -0.00501801       0.06468470       0.02266527
2
Lattice="-0.27868392 3.071816414 2.973084956 3.188463644 0.114816457 2.933754282 2.75016727 3.248719899 0.089802974" Properties=species:S:1:pos:R:3:forces:R:3 batch_id=T generation=8 composition=V2 config_type=dia_aa source_path=V-Cr-Ti-W-Zr/Fixed_Engrads/vcrtiwzr_fin_engrads/job_gen_6-2024-12-23/V/V2_dia_idx_2888 temperature=T date_processed=2025-01-03T17:39:59.554067 structure_type=T structure_index=2888 adversarial_step=T structure_id=7913 energy=-12.1616605758667 stress="0.07178483227559028 0.004777931409445767 -0.004385178206190437 0.004777931409445767 0.07148254974711463 -0.0017087441949021854 -0.004385178206190437 -0.0017087441949021854 0.09081432603063982" calculation_info="_JSON {\"calculation_id\": 7913, \"calculator\": \"vasp\", \"calculation_source_path\": \"\", \"error\": null, \"status\": \"completed\", \"gpu_count\": null, \"parameters\": {}, \"date_started\": null, \"gpu_memory_mb\": null, \"model_version\": null, \"date_completed\": null, \"runtime_seconds\": null}" parent_id=7913 step=10 variance=0.797346830368042 loss=0.797346830368042 pbc="T T T"
V       -0.06672113       0.01129986       0.04992147       0.01143353      -0.06774610      -0.02472869
V        1.48204862       1.59899010       1.44959455      -0.01143353       0.06774609       0.02472869
2
Lattice="-0.27868392 3.071816414 2.973084956 3.188463644 0.114816457 2.933754282 2.75016727 3.248719899 0.089802974" Properties=species:S:1:pos:R:3:forces:R:3 batch_id=T generation=8 composition=V2 config_type=dia_aa source_path=V-Cr-Ti-W-Zr/Fixed_Engrads/vcrtiwzr_fin_engrads/job_gen_6-2024-12-23/V/V2_dia_idx_2888 temperature=T date_processed=2025-01-03T17:39:59.554067 structure_type=T structure_index=2888 adversarial_step=T structure_id=7913 energy=-12.16126766204834 stress="0.07178483227559028 0.004777931409445767 -0.004385178206190437 0.004777931409445767 0.07148254974711463 -0.0017087441949021854 -0.004385178206190437 -0.0017087441949021854 0.09081432603063982" calculation_info="_JSON {\"calculation_id\": 7913, \"calculator\": \"vasp\", \"calculation_source_path\": \"\", \"error\": null, \"status\": \"completed\", \"gpu_count\": null, \"parameters\": {}, \"date_started\": null, \"gpu_memory_mb\": null, \"model_version\": null, \"date_completed\": null, \"runtime_seconds\": null}" parent_id=7913 step=11 variance=0.7947214841842651 loss=0.7947214841842651 pbc="T T T"
V       -0.06686270       0.01422236       0.05026083       0.01653552      -0.06801591      -0.02742714
V        1.48239952       1.59642471       1.44941236      -0.01653550       0.06801591       0.02742713
2
Lattice="-0.27868392 3.071816414 2.973084956 3.188463644 0.114816457 2.933754282 2.75016727 3.248719899 0.089802974" Properties=species:S:1:pos:R:3:forces:R:3 batch_id=T generation=8 composition=V2 config_type=dia_aa source_path=V-Cr-Ti-W-Zr/Fixed_Engrads/vcrtiwzr_fin_engrads/job_gen_6-2024-12-23/V/V2_dia_idx_2888 temperature=T date_processed=2025-01-03T17:39:59.554067 structure_type=T structure_index=2888 adversarial_step=T structure_id=7913 energy=-12.161000823974609 stress="0.07178483227559028 0.004777931409445767 -0.004385178206190437 0.004777931409445767 0.07148254974711463 -0.0017087441949021854 -0.004385178206190437 -0.0017087441949021854 0.09081432603063982" calculation_info="_JSON {\"calculation_id\": 7913, \"calculator\": \"vasp\", \"calculation_source_path\": \"\", \"error\": null, \"status\": \"completed\", \"gpu_count\": null, \"parameters\": {}, \"date_started\": null, \"gpu_memory_mb\": null, \"model_version\": null, \"date_completed\": null, \"runtime_seconds\": null}" parent_id=7913 step=12 variance=0.7985963821411133 loss=0.7985963821411133 pbc="T T T"
V       -0.06592768       0.01672976       0.05019829       0.02045505      -0.06587956      -0.03062343
V        1.48164490       1.59430859       1.44968865      -0.02045504       0.06587957       0.03062344
2
Lattice="-0.27868392 3.071816414 2.973084956 3.188463644 0.114816457 2.933754282 2.75016727 3.248719899 0.089802974" Properties=species:S:1:pos:R:3:forces:R:3 batch_id=T generation=8 composition=V2 config_type=dia_aa source_path=V-Cr-Ti-W-Zr/Fixed_Engrads/vcrtiwzr_fin_engrads/job_gen_6-2024-12-23/V/V2_dia_idx_2888 temperature=T date_processed=2025-01-03T17:39:59.554067 structure_type=T structure_index=2888 adversarial_step=T structure_id=7913 energy=-12.160862922668457 stress="0.07178483227559028 0.004777931409445767 -0.004385178206190437 0.004777931409445767 0.07148254974711463 -0.0017087441949021854 -0.004385178206190437 -0.0017087441949021854 0.09081432603063982" calculation_info="_JSON {\"calculation_id\": 7913, \"calculator\": \"vasp\", \"calculation_source_path\": \"\", \"error\": null, \"status\": \"completed\", \"gpu_count\": null, \"parameters\": {}, \"date_started\": null, \"gpu_memory_mb\": null, \"model_version\": null, \"date_completed\": null, \"runtime_seconds\": null}" parent_id=7913 step=13 variance=0.8083038330078125 loss=0.8083038330078125 pbc="T T T"
V       -0.06410240       0.01885467       0.04967004       0.02342973      -0.06174332      -0.03423259
V        1.47994021       1.59247646       1.45034846      -0.02342973       0.06174332       0.03423260
2
Lattice="-0.27868392 3.071816414 2.973084956 3.188463644 0.114816457 2.933754282 2.75016727 3.248719899 0.089802974" Properties=species:S:1:pos:R:3:forces:R:3 batch_id=T generation=8 composition=V2 config_type=dia_aa source_path=V-Cr-Ti-W-Zr/Fixed_Engrads/vcrtiwzr_fin_engrads/job_gen_6-2024-12-23/V/V2_dia_idx_2888 temperature=T date_processed=2025-01-03T17:39:59.554067 structure_type=T structure_index=2888 adversarial_step=T structure_id=7913 energy=-12.1608491897583 stress="0.07178483227559028 0.004777931409445767 -0.004385178206190437 0.004777931409445767 0.07148254974711463 -0.0017087441949021854 -0.004385178206190437 -0.0017087441949021854 0.09081432603063982" calculation_info="_JSON {\"calculation_id\": 7913, \"calculator\": \"vasp\", \"calculation_source_path\": \"\", \"error\": null, \"status\": \"completed\", \"gpu_count\": null, \"parameters\": {}, \"date_started\": null, \"gpu_memory_mb\": null, \"model_version\": null, \"date_completed\": null, \"runtime_seconds\": null}" parent_id=7913 step=14 variance=0.8232861757278442 loss=0.8232861757278442 pbc="T T T"
V       -0.06146109       0.02068532       0.04877797       0.02558971      -0.05596288      -0.03817482
V        1.47738723       1.59079804       1.45127348      -0.02558969       0.05596288       0.03817481
2
Lattice="-0.27868392 3.071816414 2.973084956 3.188463644 0.114816457 2.933754282 2.75016727 3.248719899 0.089802974" Properties=species:S:1:pos:R:3:forces:R:3 batch_id=T generation=8 composition=V2 config_type=dia_aa source_path=V-Cr-Ti-W-Zr/Fixed_Engrads/vcrtiwzr_fin_engrads/job_gen_6-2024-12-23/V/V2_dia_idx_2888 temperature=T date_processed=2025-01-03T17:39:59.554067 structure_type=T structure_index=2888 adversarial_step=T structure_id=7913 energy=-12.160952758789062 stress="0.07178483227559028 0.004777931409445767 -0.004385178206190437 0.004777931409445767 0.07148254974711463 -0.0017087441949021854 -0.004385178206190437 -0.0017087441949021854 0.09081432603063982" calculation_info="_JSON {\"calculation_id\": 7913, \"calculator\": \"vasp\", \"calculation_source_path\": \"\", \"error\": null, \"status\": \"completed\", \"gpu_count\": null, \"parameters\": {}, \"date_started\": null, \"gpu_memory_mb\": null, \"model_version\": null, \"date_completed\": null, \"runtime_seconds\": null}" parent_id=7913 step=15 variance=0.8429415225982666 loss=0.8429415225982666 pbc="T T T"
V       -0.05807232       0.02223183       0.04763957       0.02698497      -0.04887228      -0.04227703
V        1.47412623       1.58919018       1.45243100      -0.02698498       0.04887227       0.04227702
2
Lattice="-0.27868392 3.071816414 2.973084956 3.188463644 0.114816457 2.933754282 2.75016727 3.248719899 0.089802974" Properties=species:S:1:pos:R:3:forces:R:3 batch_id=T generation=8 composition=V2 config_type=dia_aa source_path=V-Cr-Ti-W-Zr/Fixed_Engrads/vcrtiwzr_fin_engrads/job_gen_6-2024-12-23/V/V2_dia_idx_2888 temperature=T date_processed=2025-01-03T17:39:59.554067 structure_type=T structure_index=2888 adversarial_step=T structure_id=7913 energy=-12.161160278320313 stress="0.07178483227559028 0.004777931409445767 -0.004385178206190437 0.004777931409445767 0.07148254974711463 -0.0017087441949021854 -0.004385178206190437 -0.0017087441949021854 0.09081432603063982" calculation_info="_JSON {\"calculation_id\": 7913, \"calculator\": \"vasp\", \"calculation_source_path\": \"\", \"error\": null, \"status\": \"completed\", \"gpu_count\": null, \"parameters\": {}, \"date_started\": null, \"gpu_memory_mb\": null, \"model_version\": null, \"date_completed\": null, \"runtime_seconds\": null}" parent_id=7913 step=16 variance=0.8665404915809631 loss=0.8665404915809631 pbc="T T T"
V       -0.05408877       0.02349470       0.04624251       0.02769413      -0.04072402      -0.04651300
V        1.47017716       1.58756476       1.45375928      -0.02769414       0.04072401       0.04651300
2
Lattice="-0.27868392 3.071816414 2.973084956 3.188463644 0.114816457 2.933754282 2.75016727 3.248719899 0.089802974" Properties=species:S:1:pos:R:3:forces:R:3 batch_id=T generation=8 composition=V2 config_type=dia_aa source_path=V-Cr-Ti-W-Zr/Fixed_Engrads/vcrtiwzr_fin_engrads/job_gen_6-2024-12-23/V/V2_dia_idx_2888 temperature=T date_processed=2025-01-03T17:39:59.554067 structure_type=T structure_index=2888 adversarial_step=T structure_id=7913 energy=-12.161450004577636 stress="0.07178483227559028 0.004777931409445767 -0.004385178206190437 0.004777931409445767 0.07148254974711463 -0.0017087441949021854 -0.004385178206190437 -0.0017087441949021854 0.09081432603063982" calculation_info="_JSON {\"calculation_id\": 7913, \"calculator\": \"vasp\", \"calculation_source_path\": \"\", \"error\": null, \"status\": \"completed\", \"gpu_count\": null, \"parameters\": {}, \"date_started\": null, \"gpu_memory_mb\": null, \"model_version\": null, \"date_completed\": null, \"runtime_seconds\": null}" parent_id=7913 step=17 variance=0.892997682094574 loss=0.892997682094574 pbc="T T T"
V       -0.04954207       0.02485292       0.04465446       0.02809267      -0.03179570      -0.05090697
V        1.46570764       1.58583507       1.45523745      -0.02809267       0.03179572       0.05090698
2
Lattice="-0.27868392 3.071816414 2.973084956 3.188463644 0.114816457 2.933754282 2.75016727 3.248719899 0.089802974" Properties=species:S:1:pos:R:3:forces:R:3 batch_id=T generation=8 composition=V2 config_type=dia_aa source_path=V-Cr-Ti-W-Zr/Fixed_Engrads/vcrtiwzr_fin_engrads/job_gen_6-2024-12-23/V/V2_dia_idx_2888 temperature=T date_processed=2025-01-03T17:39:59.554067 structure_type=T structure_index=2888 adversarial_step=T structure_id=7913 energy=-12.161809730529786 stress="0.07178483227559028 0.004777931409445767 -0.004385178206190437 0.004777931409445767 0.07148254974711463 -0.0017087441949021854 -0.004385178206190437 -0.0017087441949021854 0.09081432603063982" calculation_info="_JSON {\"calculation_id\": 7913, \"calculator\": \"vasp\", \"calculation_source_path\": \"\", \"error\": null, \"status\": \"completed\", \"gpu_count\": null, \"parameters\": {}, \"date_started\": null, \"gpu_memory_mb\": null, \"model_version\": null, \"date_completed\": null, \"runtime_seconds\": null}" parent_id=7913 step=18 variance=0.9205393195152283 loss=0.9205393195152283 pbc="T T T"
V       -0.04453307       0.02651172       0.04293733       0.02844634      -0.02236918      -0.05539316
V        1.46079533       1.58390337       1.45684579      -0.02844634       0.02236916       0.05539315
2
Lattice="-0.27868392 3.071816414 2.973084956 3.188463644 0.114816457 2.933754282 2.75016727 3.248719899 0.089802974" Properties=species:S:1:pos:R:3:forces:R:3 batch_id=T generation=8 composition=V2 config_type=dia_aa source_path=V-Cr-Ti-W-Zr/Fixed_Engrads/vcrtiwzr_fin_engrads/job_gen_6-2024-12-23/V/V2_dia_idx_2888 temperature=T date_processed=2025-01-03T17:39:59.554067 structure_type=T structure_index=2888 adversarial_step=T structure_id=7913 energy=-12.162235069274903 stress="0.07178483227559028 0.004777931409445767 -0.004385178206190437 0.004777931409445767 0.07148254974711463 -0.0017087441949021854 -0.004385178206190437 -0.0017087441949021854 0.09081432603063982" calculation_info="_JSON {\"calculation_id\": 7913, \"calculator\": \"vasp\", \"calculation_source_path\": \"\", \"error\": null, \"status\": \"completed\", \"gpu_count\": null, \"parameters\": {}, \"date_started\": null, \"gpu_memory_mb\": null, \"model_version\": null, \"date_completed\": null, \"runtime_seconds\": null}" parent_id=7913 step=19 variance=0.9455095529556274 loss=0.9455095529556274 pbc="T T T"
V       -0.03917452       0.02866417       0.04115527       0.02916124      -0.01279481      -0.05995930
V        1.45556942       1.58147355       1.45854850      -0.02916125       0.01279483       0.05995930
2
Lattice="-0.27868392 3.071816414 2.973084956 3.188463644 0.114816457 2.933754282 2.75016727 3.248719899 0.089802974" Properties=species:S:1:pos:R:3:forces:R:3 batch_id=T generation=8 composition=V2 config_type=dia_aa source_path=V-Cr-Ti-W-Zr/Fixed_Engrads/vcrtiwzr_fin_engrads/job_gen_6-2024-12-23/V/V2_dia_idx_2888 temperature=T date_processed=2025-01-03T17:39:59.554067 structure_type=T structure_index=2888 adversarial_step=T structure_id=7913 energy=-12.162730026245118 stress="0.07178483227559028 0.004777931409445767 -0.004385178206190437 0.004777931409445767 0.07148254974711463 -0.0017087441949021854 -0.004385178206190437 -0.0017087441949021854 0.09081432603063982" calculation_info="_JSON {\"calculation_id\": 7913, \"calculator\": \"vasp\", \"calculation_source_path\": \"\", \"error\": null, \"status\": \"completed\", \"gpu_count\": null, \"parameters\": {}, \"date_started\": null, \"gpu_memory_mb\": null, \"model_version\": null, \"date_completed\": null, \"runtime_seconds\": null}" parent_id=7913 step=20 variance=0.9594747424125671 loss=0.9594747424125671 pbc="T T T"
V       -0.03372892       0.03122934       0.03937559       0.03024252      -0.00359102      -0.06427333
V        1.45027154       1.57857438       1.46029837      -0.03024248       0.00359101       0.06427334
2
Lattice="-0.27868392 3.071816414 2.973084956 3.188463644 0.114816457 2.933754282 2.75016727 3.248719899 0.089802974" Properties=species:S:1:pos:R:3:forces:R:3 batch_id=T generation=8 composition=V2 config_type=dia_aa source_path=V-Cr-Ti-W-Zr/Fixed_Engrads/vcrtiwzr_fin_engrads/job_gen_6-2024-12-23/V/V2_dia_idx_2888 temperature=T date_processed=2025-01-03T17:39:59.554067 structure_type=T structure_index=2888 adversarial_step=T structure_id=7913 energy=-12.163261795043946 stress="0.07178483227559028 0.004777931409445767 -0.004385178206190437 0.004777931409445767 0.07148254974711463 -0.0017087441949021854 -0.004385178206190437 -0.0017087441949021854 0.09081432603063982" calculation_info="_JSON {\"calculation_id\": 7913, \"calculator\": \"vasp\", \"calculation_source_path\": \"\", \"error\": null, \"status\": \"completed\", \"gpu_count\": null, \"parameters\": {}, \"date_started\": null, \"gpu_memory_mb\": null, \"model_version\": null, \"date_completed\": null, \"runtime_seconds\": null}" parent_id=7913 step=21 variance=0.9525113105773926 loss=0.9525113105773926 pbc="T T T"
V       -0.02863154       0.03351067       0.03768306       0.03083134       0.00464981      -0.06777105
V        1.44530660       1.57596143       1.46195536      -0.03083133      -0.00464982       0.06777104
2