6
Lattice="-0.000400367 3.709719206 3.695395629 3.772087214 0.040826023 3.745408896 3.659993115 3.685017532 0.027077937" Properties=species:S:1:pos:R:3:forces:R:3 generation=6 composition=W6 config_type=C15 source_path=V-Cr-Ti-W-Zr/Fixed_Engrads/vcrtiwzr_fin_engrads/job_gen_6-2024-12-23/W/W6_C15_idx_3041 date_processed=2025-02-12T16:53:56.327854 structure_index=3041 structure_id=21691 energy=-74.9418 stress="0.0053782709647188474 -0.008974416311742502 0.017685559527046122 -0.008974416311742502 0.0009074967023760481 0.0037856562886128473 0.017685559527046122 0.0037856562886128473 0.004121380822984981" calculation_info="_JSON {\"calculation_id\": 21690, \"calculator\": \"vasp\", \"calculation_source_path\": \"\", \"error\": null, \"status\": \"completed\", \"gpu_count\": null, \"parameters\": {}, \"date_started\": null, \"gpu_memory_mb\": null, \"model_version\": null, \"date_completed\": null, \"runtime_seconds\": null}" pbc="T T T"
W        0.92896000       0.92945000       0.93349000       0.00000000       0.00000000       0.00000000
W        2.81500000       0.94986000       2.80619000       0.00000000       0.00000000       0.00000000
W        2.75896000       2.77195000       0.94702000       0.00000000       0.00000000       0.00000000
W        0.92876000       2.78430000       2.78118000       0.00000000       0.00000000       0.00000000
W        3.71584000       3.71778000       3.73394000      -0.01790500      -0.05995800       0.03324000
W        5.57376000       5.57667000       5.60091000       0.01790500       0.05995800      -0.03324000
6
Lattice="-0.000400367 3.709719206 3.695395629 3.772087214 0.040826023 3.745408896 3.659993115 3.685017532 0.027077937" Properties=species:S:1:pos:R:3:forces:R:3 generation=8 composition=W6 config_type=C15_aa source_path=V-Cr-Ti-W-Zr/Fixed_Engrads/vcrtiwzr_fin_engrads/job_gen_6-2024-12-23/W/W6_C15_idx_3041 date_processed=2025-02-12T16:53:56.327854 structure_index=3041 structure_id=21691 energy=-74.89357299804688 stress="0.0053782709647188474 -0.008974416311742502 0.017685559527046122 -0.008974416311742502 0.0009074967023760481 0.0037856562886128473 0.017685559527046122 0.0037856562886128473 0.004121380822984981" calculation_info="_JSON {\"calculation_id\": 21690, \"calculator\": \"vasp\", \"calculation_source_path\": \"\", \"error\": null, \"status\": \"completed\", \"gpu_count\": null, \"parameters\": {}, \"date_started\": null, \"gpu_memory_mb\": null, \"model_version\": null, \"date_completed\": null, \"runtime_seconds\": null}" parent_id=21691 step=0 variance=0.2049962729215622 loss=0.2049962729215622 pbc="T T T"
W        0.92896000       0.92945000       0.93349000      -0.00007584      -0.00017352      -0.00017929
W        2.81500000       0.94986000       2.80619000       0.00012100      -0.00007767       0.00004535
W        2.75896000       2.77195000       0.94702000       0.00000372       0.00006011       0.00002996
W        0.92876000       2.78430000       2.78118000      -0.00002294       0.00019886       0.00008291
W        3.71584000       3.71778000       3.73394000      -0.01074168      -0.04375184       0.02142736
W        5.57376000       5.57667000       5.60091000       0.01071557       0.04374412      -0.02140624
6
Lattice="-0.000400367 3.709719206 3.695395629 3.772087214 0.040826023 3.745408896 3.659993115 3.685017532 0.027077937" Properties=species:S:1:pos:R:3:forces:R:3 generation=8 composition=W6 config_type=C15_aa source_path=V-Cr-Ti-W-Zr/Fixed_Engrads/vcrtiwzr_fin_engrads/job_gen_6-2024-12-23/W/W6_C15_idx_3041 date_processed=2025-02-12T16:53:56.327854 structure_index=3041 structure_id=21691 energy=-74.8781005859375 stress="0.0053782709647188474 -0.008974416311742502 0.017685559527046122 -0.008974416311742502 0.0009074967023760481 0.0037856562886128473 0.017685559527046122 0.0037856562886128473 0.004121380822984981" calculation_info="_JSON {\"calculation_id\": 21690, \"calculator\": \"vasp\", \"calculation_source_path\": \"\", \"error\": null, \"status\": \"completed\", \"gpu_count\": null, \"parameters\": {}, \"date_started\": null, \"gpu_memory_mb\": null, \"model_version\": null, \"date_completed\": null, \"runtime_seconds\": null}" parent_id=21691 step=1 variance=0.03655701503157616 loss=0.03655701503157616 pbc="T T T"
W        0.93896000       0.93945000       0.94349000      -0.43734974      -0.46345896      -0.24573250
W        2.82500000       0.93986000       2.79619000      -0.21533437       0.24940896       0.12584259
W        2.74896000       2.76195000       0.93702000       0.27640840       0.27191198       0.00245506
W        0.91876000       2.79430000       2.77118000       0.24303885      -0.18532562       0.15959713
W        3.70584000       3.70778000       3.72394000       0.05525742       0.01916581      -0.00001431
W        5.56376000       5.56667000       5.59091000       0.07797945       0.10829786      -0.04214805
6
Lattice="-0.000400367 3.709719206 3.695395629 3.772087214 0.040826023 3.745408896 3.659993115 3.685017532 0.027077937" Properties=species:S:1:pos:R:3:forces:R:3 generation=8 composition=W6 config_type=C15_aa source_path=V-Cr-Ti-W-Zr/Fixed_Engrads/vcrtiwzr_fin_engrads/job_gen_6-2024-12-23/W/W6_C15_idx_3041 date_processed=2025-02-12T16:53:56.327854 structure_index=3041 structure_id=21691 energy=-74.84933319091797 stress="0.0053782709647188474 -0.008974416311742502 0.017685559527046122 -0.008974416311742502 0.0009074967023760481 0.0037856562886128473 0.017685559527046122 0.0037856562886128473 0.004121380822984981" calculation_info="_JSON {\"calculation_id\": 21690, \"calculator\": \"vasp\", \"calculation_source_path\": \"\", \"error\": null, \"status\": \"completed\", \"gpu_count\": null, \"parameters\": {}, \"date_started\": null, \"gpu_memory_mb\": null, \"model_version\": null, \"date_completed\": null, \"runtime_seconds\": null}" parent_id=21691 step=2 variance=0.017706893384456635 loss=0.017706893384456635 pbc="T T T"
W        0.94520509       0.94612548       0.95020349      -0.73909098      -0.78137654      -0.40750623
W        2.83163057       0.93228103       2.78968866      -0.37197489       0.43241864       0.20425861
W        2.74144517       2.75433298       0.92998788       0.47060436       0.46455127       0.00833554
W        0.91165243       2.80097757       2.76447190       0.41451555      -0.31574580       0.26604265
W        3.69996967       3.70181610       3.71688296       0.08358251       0.05045958      -0.01353893
W        5.55487656       5.56004101       5.58418019       0.14236340       0.14969268      -0.05759167
6
Lattice="-0.000400367 3.709719206 3.695395629 3.772087214 0.040826023 3.745408896 3.659993115 3.685017532 0.027077937" Properties=species:S:1:pos:R:3:forces:R:3 generation=8 composition=W6 config_type=C15_aa source_path=V-Cr-Ti-W-Zr/Fixed_Engrads/vcrtiwzr_fin_engrads/job_gen_6-2024-12-23/W/W6_C15_idx_3041 date_processed=2025-02-12T16:53:56.327854 structure_index=3041 structure_id=21691 energy=-74.81641998291016 stress="0.0053782709647188474 -0.008974416311742502 0.017685559527046122 -0.008974416311742502 0.0009074967023760481 0.0037856562886128473 0.017685559527046122 0.0037856562886128473 0.004121380822984981" calculation_info="_JSON {\"calculation_id\": 21690, \"calculator\": \"vasp\", \"calculation_source_path\": \"\", \"error\": null, \"status\": \"completed\", \"gpu_count\": null, \"parameters\": {}, \"date_started\": null, \"gpu_memory_mb\": null, \"model_version\": null, \"date_completed\": null, \"runtime_seconds\": null}" parent_id=21691 step=3 variance=0.013588353991508484 loss=0.013588353991508484 pbc="T T T"
W        0.94995878       0.95126978       0.95539887      -0.97668040      -1.02994931      -0.53142262
W        2.83673568       0.92611821       2.78477961      -0.49735203       0.57822305       0.26398724
W        2.73547969       2.74797643       0.92453334       0.62382489       0.61991060       0.01206403
W        0.90605593       2.80613059       2.75936650       0.55109376      -0.41937485       0.34622526
W        3.69561190       3.69753096       3.71107072       0.10219429       0.06973486      -0.02076088
W        5.54752047       5.55490255       5.57900484       0.19691932       0.18145566      -0.07009302
6
Lattice="-0.000400367 3.709719206 3.695395629 3.772087214 0.040826023 3.745408896 3.659993115 3.685017532 0.027077937" Properties=species:S:1:pos:R:3:forces:R:3 generation=8 composition=W6 config_type=C15_aa source_path=V-Cr-Ti-W-Zr/Fixed_Engrads/vcrtiwzr_fin_engrads/job_gen_6-2024-12-23/W/W6_C15_idx_3041 date_processed=2025-02-12T16:53:56.327854 structure_index=3041 structure_id=21691 energy=-74.78228302001953 stress="0.0053782709647188474 -0.008974416311742502 0.017685559527046122 -0.008974416311742502 0.0009074967023760481 0.0037856562886128473 0.017685559527046122 0.0037856562886128473 0.004121380822984981" calculation_info="_JSON {\"calculation_id\": 21690, \"calculator\": \"vasp\", \"calculation_source_path\": \"\", \"error\": null, \"status\": \"completed\", \"gpu_count\": null, \"parameters\": {}, \"date_started\": null, \"gpu_memory_mb\": null, \"model_version\": null, \"date_completed\": null, \"runtime_seconds\": null}" parent_id=21691 step=4 variance=0.01225581020116806 loss=0.01225581020116806 pbc="T T T"
W        0.95381891       0.95547532       0.95965808      -1.17406774      -1.23553157      -0.63212925
W        2.84090661       0.92089939       2.78083235      -0.60284919       0.70030200       0.31239352
W        2.73050680       2.74249875       0.92006570       0.75152171       0.75116765       0.01403525
W        0.90141656       2.81034668       2.75523233       0.66556287      -0.50624114       0.41073355
W        3.69213424       3.69420069       3.70608676       0.11580952       0.08280881      -0.02448345
W        5.54125431       5.55067993       5.57478119       0.24402304       0.20749421      -0.08054962
6
Lattice="-0.000400367 3.709719206 3.695395629 3.772087214 0.040826023 3.745408896 3.659993115 3.685017532 0.027077937" Properties=species:S:1:pos:R:3:forces:R:3 generation=8 composition=W6 config_type=C15_aa source_path=V-Cr-Ti-W-Zr/Fixed_Engrads/vcrtiwzr_fin_engrads/job_gen_6-2024-12-23/W/W6_C15_idx_3041 date_processed=2025-02-12T16:53:56.327854 structure_index=3041 structure_id=21691 energy=-74.74820861816406 stress="0.0053782709647188474 -0.008974416311742502 0.017685559527046122 -0.008974416311742502 0.0009074967023760481 0.0037856562886128473 0.017685559527046122 0.0037856562886128473 0.004121380822984981" calculation_info="_JSON {\"calculation_id\": 21690, \"calculator\": \"vasp\", \"calculation_source_path\": \"\", \"error\": null, \"status\": \"completed\", \"gpu_count\": null, \"parameters\": {}, \"date_started\": null, \"gpu_memory_mb\": null, \"model_version\": null, \"date_completed\": null, \"runtime_seconds\": null}" parent_id=21691 step=5 variance=0.011815648525953293 loss=0.011815648525953293 pbc="T T T"
W        0.95705515       0.95902468       0.96326058      -1.34304690      -1.41097856      -0.71658623
W        2.84442415       0.91636451       2.77755149      -0.69428015       0.80557603       0.35285583
W        2.72623145       2.73767306       0.91628906       0.86137706       0.86513233       0.01470472
W        0.89745319       2.81390669       2.75176881       0.76432323      -0.58126527       0.46455938
W        3.68926368       3.69151499       3.70171599       0.12610228       0.09195448      -0.02604102
W        5.53578594       5.54709708       5.57122077       0.28552464       0.22958100      -0.08949260
6
Lattice="-0.000400367 3.709719206 3.695395629 3.772087214 0.040826023 3.745408896 3.659993115 3.685017532 0.027077937" Properties=species:S:1:pos:R:3:forces:R:3 generation=8 composition=W6 config_type=C15_aa source_path=V-Cr-Ti-W-Zr/Fixed_Engrads/vcrtiwzr_fin_engrads/job_gen_6-2024-12-23/W/W6_C15_idx_3041 date_processed=2025-02-12T16:53:56.327854 structure_index=3041 structure_id=21691 energy=-74.71485900878906 stress="0.0053782709647188474 -0.008974416311742502 0.017685559527046122 -0.008974416311742502 0.0009074967023760481 0.0037856562886128473 0.017685559527046122 0.0037856562886128473 0.004121380822984981" calculation_info="_JSON {\"calculation_id\": 21690, \"calculator\": \"vasp\", \"calculation_source_path\": \"\", \"error\": null, \"status\": \"completed\", \"gpu_count\": null, \"parameters\": {}, \"date_started\": null, \"gpu_memory_mb\": null, \"model_version\": null, \"date_completed\": null, \"runtime_seconds\": null}" parent_id=21691 step=6 variance=0.011775459162890911 loss=0.011775459162890911 pbc="T T T"
W        0.95982169       0.96207970       0.96636753      -1.49052763      -1.56369722      -0.78881043
W        2.84744916       0.91235045       2.77476923      -0.77503300       0.89819926       0.38728029
W        2.72248066       2.73335728       0.91303037       0.95779788       0.96581733       0.01450795
W        0.89400059       2.81697207       2.74880580       0.85116065      -0.64730978       0.51045716
W        3.68684908       3.68930660       3.69782496       0.13393518       0.09829240      -0.02614815
W        5.53092847       5.54399549       5.56815726       0.32266706       0.24869780      -0.09728673
6
Lattice="-0.000400367 3.709719206 3.695395629 3.772087214 0.040826023 3.745408896 3.659993115 3.685017532 0.027077937" Properties=species:S:1:pos:R:3:forces:R:3 generation=8 composition=W6 config_type=C15_aa source_path=V-Cr-Ti-W-Zr/Fixed_Engrads/vcrtiwzr_fin_engrads/job_gen_6-2024-12-23/W/W6_C15_idx_3041 date_processed=2025-02-12T16:53:56.327854 structure_index=3041 structure_id=21691 energy=-74.68255920410157 stress="0.0053782709647188474 -0.008974416311742502 0.017685559527046122 -0.008974416311742502 0.0009074967023760481 0.0037856562886128473 0.017685559527046122 0.0037856562886128473 0.004121380822984981" calculation_info="_JSON {\"calculation_id\": 21690, \"calculator\": \"vasp\", \"calculation_source_path\": \"\", \"error\": null, \"status\": \"completed\", \"gpu_count\": null, \"parameters\": {}, \"date_started\": null, \"gpu_memory_mb\": null, \"model_version\": null, \"date_completed\": null, \"runtime_seconds\": null}" parent_id=21691 step=7 variance=0.011964363045990467 loss=0.011964363045990467 pbc="T T T"
W        0.96221570       0.96474453       0.96908268      -1.62104249      -1.69852829      -0.85137528
W        2.85008498       0.90874922       2.77237837      -0.84733468       0.98080903       0.41696209
W        2.71913794       2.72944760       0.91017882       1.04373729       1.05601668       0.01364880
W        0.89095124       2.81964654       2.74623460       0.92849028      -0.70622176       0.55021912
W        3.68479636       3.68747268       3.69432609       0.13979985       0.10247195      -0.02526591
W        5.52655057       5.54127276       5.56548496       0.35634938       0.26545256      -0.10418884
6
Lattice="-0.000400367 3.709719206 3.695395629 3.772087214 0.040826023 3.745408896 3.659993115 3.685017532 0.027077937" Properties=species:S:1:pos:R:3:forces:R:3 generation=8 composition=W6 config_type=C15_aa source_path=V-Cr-Ti-W-Zr/Fixed_Engrads/vcrtiwzr_fin_engrads/job_gen_6-2024-12-23/W/W6_C15_idx_3041 date_processed=2025-02-12T16:53:56.327854 structure_index=3041 structure_id=21691 energy=-74.65149841308593 stress="0.0053782709647188474 -0.008974416311742502 0.017685559527046122 -0.008974416311742502 0.0009074967023760481 0.0037856562886128473 0.017685559527046122 0.0037856562886128473 0.004121380822984981" calculation_info="_JSON {\"calculation_id\": 21690, \"calculator\": \"vasp\", \"calculation_source_path\": \"\", \"error\": null, \"status\": \"completed\", \"gpu_count\": null, \"parameters\": {}, \"date_started\": null, \"gpu_memory_mb\": null, \"model_version\": null, \"date_completed\": null, \"runtime_seconds\": null}" parent_id=21691 step=8 variance=0.012316827662289143 loss=0.012316827662289143 pbc="T T T"
W        0.96430368       0.96709107       0.97147793      -1.73773730      -1.81881392      -0.90607965
W        2.85240310       0.90548294       2.77030492      -0.91272372       1.05526996       0.44277078
W        2.71612411       2.72586867       0.90765649       1.12116945       1.13766646       0.01232517
W        0.88822936       2.82200188       2.74397948       0.99803627      -0.75926101       0.58506739
W        3.68304218       3.68594564       3.69115806       0.14399883       0.10487714      -0.02371365
W        5.52255641       5.53885870       5.56313004       0.38725623       0.28026113      -0.11037008
6
Lattice="-0.000400367 3.709719206 3.695395629 3.772087214 0.040826023 3.745408896 3.659993115 3.685017532 0.027077937" Properties=species:S:1:pos:R:3:forces:R:3 generation=8 composition=W6 config_type=C15_aa source_path=V-Cr-Ti-W-Zr/Fixed_Engrads/vcrtiwzr_fin_engrads/job_gen_6-2024-12-23/W/W6_C15_idx_3041 date_processed=2025-02-12T16:53:56.327854 structure_index=3041 structure_id=21691 energy=-74.62174987792969 stress="0.0053782709647188474 -0.008974416311742502 0.017685559527046122 -0.008974416311742502 0.0009074967023760481 0.0037856562886128473 0.017685559527046122 0.0037856562886128473 0.004121380822984981" calculation_info="_JSON {\"calculation_id\": 21690, \"calculator\": \"vasp\", \"calculation_source_path\": \"\", \"error\": null, \"status\": \"completed\", \"gpu_count\": null, \"parameters\": {}, \"date_started\": null, \"gpu_memory_mb\": null, \"model_version\": null, \"date_completed\": null, \"runtime_seconds\": null}" parent_id=21691 step=9 variance=0.012807365506887436 loss=0.012807365506887436 pbc="T T T"
W        0.96613318       0.96917178       0.97360584      -1.84290981      -1.92699873      -0.95421374
W        2.85445554       0.90249324       2.76849571      -0.97237396       1.12296748       0.46533909
W        2.71337916       2.72256489       0.90540635       1.19156265       1.21218562       0.01069417
W        0.88577867       2.82409053       2.74198614       1.06105781      -0.80738318       0.61586159
W        3.68154123       3.68467725       3.68827329       0.14674124       0.10578529      -0.02171103
W        5.51886987       5.53670063       5.56103835       0.41592208       0.29344353      -0.11597003
6
Lattice="-0.000400367 3.709719206 3.695395629 3.772087214 0.040826023 3.745408896 3.659993115 3.685017532 0.027077937" Properties=species:S:1:pos:R:3:forces:R:3 generation=8 composition=W6 config_type=C15_aa source_path=V-Cr-Ti-W-Zr/Fixed_Engrads/vcrtiwzr_fin_engrads/job_gen_6-2024-12-23/W/W6_C15_idx_3041 date_processed=2025-02-12T16:53:56.327854 structure_index=3041 structure_id=21691 energy=-74.59331817626953 stress="0.0053782709647188474 -0.008974416311742502 0.017685559527046122 -0.008974416311742502 0.0009074967023760481 0.0037856562886128473 0.017685559527046122 0.0037856562886128473 0.004121380822984981" calculation_info="_JSON {\"calculation_id\": 21690, \"calculator\": \"vasp\", \"calculation_source_path\": \"\", \"error\": null, \"status\": \"completed\", \"gpu_count\": null, \"parameters\": {}, \"date_started\": null, \"gpu_memory_mb\": null, \"model_version\": null, \"date_completed\": null, \"runtime_seconds\": null}" parent_id=21691 step=10 variance=0.013437226414680481 loss=0.013437226414680481 pbc="T T T"
W        0.96774117       0.97102653       0.97550650      -1.93836439      -2.02497554      -0.99677277
W        2.85628172       0.89973227       2.76691015      -1.02718186       1.18501961       0.48513246
W        2.71085474       2.71949081       0.90338292       1.25607169       1.28068948       0.00889674
W        0.88355565       2.82595235       2.74021263       1.11855531      -0.85133189       0.64327377
W        3.68026048       3.68363227       3.68563619       0.14814135       0.10536359      -0.01943849
W        5.51543242       5.53475876       5.55916897       0.44277781       0.30523458      -0.12109180
6
Lattice="-0.000400367 3.709719206 3.695395629 3.772087214 0.040826023 3.745408896 3.659993115 3.685017532 0.027077937" Properties=species:S:1:pos:R:3:forces:R:3 generation=8 composition=W6 config_type=C15_aa source_path=V-Cr-Ti-W-Zr/Fixed_Engrads/vcrtiwzr_fin_engrads/job_gen_6-2024-12-23/W/W6_C15_idx_3041 date_processed=2025-02-12T16:53:56.327854 structure_index=3041 structure_id=21691 energy=-74.5661849975586 stress="0.0053782709647188474 -0.008974416311742502 0.017685559527046122 -0.008974416311742502 0.0009074967023760481 0.0037856562886128473 0.017685559527046122 0.0037856562886128473 0.004121380822984981" calculation_info="_JSON {\"calculation_id\": 21690, \"calculator\": \"vasp\", \"calculation_source_path\": \"\", \"error\": null, \"status\": \"completed\", \"gpu_count\": null, \"parameters\": {}, \"date_started\": null, \"gpu_memory_mb\": null, \"model_version\": null, \"date_completed\": null, \"runtime_seconds\": null}" parent_id=21691 step=11 variance=0.014222842641174793 loss=0.014222842641174793 pbc="T T T"
W        0.96915314       0.97268657       0.97721137      -2.02547598      -2.11422610      -1.03451169
W        2.85791261       0.89716293       2.76551772      -1.07788515       1.24230921       0.50247413
W        2.70851215       2.71660967       0.90154968       1.31559718       1.34403801       0.00705605
W        0.88152536       2.82761859       2.73862575       1.17129636      -0.89168054       0.66783601
W        3.67917548       3.68278527       3.68321752       0.14826727       0.10374153      -0.01702878
W        5.51219148       5.53300103       5.55748925       0.46820039       0.31581807      -0.12582569
6
Lattice="-0.000400367 3.709719206 3.695395629 3.772087214 0.040826023 3.745408896 3.659993115 3.685017532 0.027077937" Properties=species:S:1:pos:R:3:forces:R:3 generation=8 composition=W6 config_type=C15_aa source_path=V-Cr-Ti-W-Zr/Fixed_Engrads/vcrtiwzr_fin_engrads/job_gen_6-2024-12-23/W/W6_C15_idx_3041 date_processed=2025-02-12T16:53:56.327854 structure_index=3041 structure_id=21691 energy=-74.54027709960937 stress="0.0053782709647188474 -0.008974416311742502 0.017685559527046122 -0.008974416311742502 0.0009074967023760481 0.0037856562886128473 0.017685559527046122 0.0037856562886128473 0.004121380822984981" calculation_info="_JSON {\"calculation_id\": 21690, \"calculator\": \"vasp\", \"calculation_source_path\": \"\", \"error\": null, \"status\": \"completed\", \"gpu_count\": null, \"parameters\": {}, \"date_started\": null, \"gpu_memory_mb\": null, \"model_version\": null, \"date_completed\": null, \"runtime_seconds\": null}" parent_id=21691 step=12 variance=0.015200364403426647 loss=0.015200364403426647 pbc="T T T"
W        0.97038988       0.97417708       0.97874581      -2.10543013      -2.19601703      -1.06806397
W        2.85937296       0.89474978       2.76429285      -1.12511849       1.29560220       0.51766384
W        2.70631815       2.71388543       0.89987657       1.37090862       1.40302920       0.00526896
W        0.87965835       2.82911439       2.73719776       1.21997726      -0.92891657       0.68998939
W        3.67826804       3.68211714       3.68099413       0.14714420       0.10095838      -0.01460379
W        5.50910267       5.53140121       5.55597344       0.49251848       0.32534385      -0.13025451
6
Lattice="-0.000400367 3.709719206 3.695395629 3.772087214 0.040826023 3.745408896 3.659993115 3.685017532 0.027077937" Properties=species:S:1:pos:R:3:forces:R:3 generation=8 composition=W6 config_type=C15_aa source_path=V-Cr-Ti-W-Zr/Fixed_Engrads/vcrtiwzr_fin_engrads/job_gen_6-2024-12-23/W/W6_C15_idx_3041 date_processed=2025-02-12T16:53:56.327854 structure_index=3041 structure_id=21691 energy=-74.51552124023438 stress="0.0053782709647188474 -0.008974416311742502 0.017685559527046122 -0.008974416311742502 0.0009074967023760481 0.0037856562886128473 0.017685559527046122 0.0037856562886128473 0.004121380822984981" calculation_info="_JSON {\"calculation_id\": 21690, \"calculator\": \"vasp\", \"calculation_source_path\": \"\", \"error\": null, \"status\": \"completed\", \"gpu_count\": null, \"parameters\": {}, \"date_started\": null, \"gpu_memory_mb\": null, \"model_version\": null, \"date_completed\": null, \"runtime_seconds\": null}" parent_id=21691 step=13 variance=0.01642613299190998 loss=0.01642613299190998 pbc="T T T"
W        0.97146740       0.97551867       0.98013071      -2.17912912      -2.27130771      -1.09790230
W        2.86068313       0.89246486       2.76321614      -1.16943395       1.34557664       0.53087199
W        2.70424393       2.71129673       0.89833858       1.42259884       1.45818126       0.00364988
W        0.87792958       2.83046037       2.73590739       1.26514399      -0.96346968       0.71008110
W        3.67752560       3.68161501       3.67894746       0.14475195       0.09705367      -0.01227126
W        5.50612189       5.52993763       5.55459979       0.51606828       0.33396596      -0.13442914
6
Lattice="-0.000400367 3.709719206 3.695395629 3.772087214 0.040826023 3.745408896 3.659993115 3.685017532 0.027077937" Properties=species:S:1:pos:R:3:forces:R:3 generation=8 composition=W6 config_type=C15_aa source_path=V-Cr-Ti-W-Zr/Fixed_Engrads/vcrtiwzr_fin_engrads/job_gen_6-2024-12-23/W/W6_C15_idx_3041 date_processed=2025-02-12T16:53:56.327854 structure_index=3041 structure_id=21691 energy=-74.49178771972656 stress="0.0053782709647188474 -0.008974416311742502 0.017685559527046122 -0.008974416311742502 0.0009074967023760481 0.0037856562886128473 0.017685559527046122 0.0037856562886128473 0.004121380822984981" calculation_info="_JSON {\"calculation_id\": 21690, \"calculator\": \"vasp\", \"calculation_source_path\": \"\", \"error\": null, \"status\": \"completed\", \"gpu_count\": null, \"parameters\": {}, \"date_started\": null, \"gpu_memory_mb\": null, \"model_version\": null, \"date_completed\": null, \"runtime_seconds\": null}" parent_id=21691 step=14 variance=0.01799069344997406 loss=0.01799069344997406 pbc="T T T"
W        0.97239889       0.97672869       0.98138354      -2.24753833      -2.34108114      -1.12445545
W        2.86185960       0.89027804       2.76226868      -1.21131980       1.39284396       0.54232693
W        2.70225986       2.70880926       0.89691261       1.47132993       1.51019561       0.00224899
W        0.87631709       2.83167365       2.73473542       1.30732369      -0.99572963       0.72842610
W        3.67693980       3.68126936       3.67706190       0.14102812       0.09200497      -0.01013031
W        5.50320694       5.52859178       5.55335012       0.53917634       0.34176603      -0.13841639
6
Lattice="-0.000400367 3.709719206 3.695395629 3.772087214 0.040826023 3.745408896 3.659993115 3.685017532 0.027077937" Properties=species:S:1:pos:R:3:forces:R:3 generation=8 composition=W6 config_type=C15_aa source_path=V-Cr-Ti-W-Zr/Fixed_Engrads/vcrtiwzr_fin_engrads/job_gen_6-2024-12-23/W/W6_C15_idx_3041 date_processed=2025-02-12T16:53:56.327854 structure_index=3041 structure_id=21691 energy=-74.46892852783203 stress="0.0053782709647188474 -0.008974416311742502 0.017685559527046122 -0.008974416311742502 0.0009074967023760481 0.0037856562886128473 0.017685559527046122 0.0037856562886128473 0.004121380822984981" calculation_info="_JSON {\"calculation_id\": 21690, \"calculator\": \"vasp\", \"calculation_source_path\": \"\", \"error\": null, \"status\": \"completed\", \"gpu_count\": null, \"parameters\": {}, \"date_started\": null, \"gpu_memory_mb\": null, \"model_version\": null, \"date_completed\": null, \"runtime_seconds\": null}" parent_id=21691 step=15 variance=0.020038560032844543 loss=0.020038560032844543 pbc="T T T"
W        0.97319035       0.97782134       0.98251913      -2.31140780      -2.40615702      -1.14804208
W        2.86291604       0.88816233       2.76143690      -1.25129128       1.43797207       0.55215997
W        2.70033706       2.70639429       0.89557669       1.51766467       1.55963445       0.00114156
W        0.87479889       2.83276860       2.73366467       1.34698820      -1.02604377       0.74531627
W        3.67650718       3.68107628       3.67532267       0.13585012       0.08574618      -0.00828415
W        5.50031151       5.52734560       5.55220854       0.56219631       0.34884810      -0.14229147
6
Lattice="-0.000400367 3.709719206 3.695395629 3.772087214 0.040826023 3.745408896 3.659993115 3.685017532 0.027077937" Properties=species:S:1:pos:R:3:forces:R:3 generation=8 composition=W6 config_type=C15_aa source_path=V-Cr-Ti-W-Zr/Fixed_Engrads/vcrtiwzr_fin_engrads/job_gen_6-2024-12-23/W/W6_C15_idx_3041 date_processed=2025-02-12T16:53:56.327854 structure_index=3041 structure_id=21691 energy=-74.44679718017578 stress="0.0053782709647188474 -0.008974416311742502 0.017685559527046122 -0.008974416311742502 0.0009074967023760481 0.0037856562886128473 0.017685559527046122 0.0037856562886128473 0.004121380822984981" calculation_info="_JSON {\"calculation_id\": 21690, \"calculator\": \"vasp\", \"calculation_source_path\": \"\", \"error\": null, \"status\": \"completed\", \"gpu_count\": null, \"parameters\": {}, \"date_started\": null, \"gpu_memory_mb\": null, \"model_version\": null, \"date_completed\": null, \"runtime_seconds\": null}" parent_id=21691 step=16 variance=0.022817164659500122 loss=0.022817164659500122 pbc="T T T"
W        0.97384494       0.97880917       0.98355032      -2.37135363      -2.46724224      -1.16892183
W        2.86386389       0.88608903       2.76071308      -1.28987646       1.48165607       0.56030989
W        2.69844686       2.70403120       0.89430935       1.56207728       1.60684180       0.00051640
W        0.87335425       2.83375749       2.73267916       1.38459647      -1.05475569       0.76100880
W        3.67623065       3.68103790       3.67371812       0.12899920       0.07816918      -0.00681050
W        5.49738026       5.52618357       5.55116143       0.58555710       0.35533088      -0.14610276
6