8
Lattice="5.404359566 -0.067783137 -0.13952364 -0.164698683 5.512428654 -0.153406941 0.254793885 0.340636291 5.066750111" Properties=species:S:1:pos:R:3:forces:R:3 batch_id=T generation=6 composition=V8 config_type=A15 source_path=V-Cr-Ti-W-Zr/Fixed_Engrads/vcrtiwzr_fin_engrads/job_gen_6-2024-12-23/V/V8_A15_idx_2973 temperature=T date_processed=2025-01-03T17:40:36.668053 structure_type=T structure_index=2973 adversarial_step=T structure_id=8479 energy=-66.01292 stress="0.18810714504716358 -0.006220188130709241 0.0008874489750637111 -0.006220188130709241 0.19476141765455976 0.00310327209588003 0.0008874489750637111 0.00310327209588003 0.18109642609509735" calculation_info="_JSON {\"calculation_id\": 8479, \"calculator\": \"vasp\", \"calculation_source_path\": \"\", \"error\": null, \"status\": \"completed\", \"gpu_count\": null, \"parameters\": {}, \"date_started\": null, \"gpu_memory_mb\": null, \"model_version\": null, \"date_completed\": null, \"runtime_seconds\": null}" pbc="T T T"
V        0.00000000       0.00000000       0.00000000       0.00000000       0.00000000       0.00000000
V        2.74723000       2.89264000       2.38691000       0.00000000       0.00000000       0.00000000
V        1.26874000       2.73927000      -0.11158000      -0.05038100      -0.01062300       0.02125800
V        4.22571000       3.04601000       4.88540000       0.05038100       0.01062300      -0.02125800
V        5.49058000       1.48064000       2.35550000       0.00221200       0.02409400      -0.02987900
V        0.00387000       4.30464000       2.41832000      -0.00221200      -0.02409400       0.02987900
V        2.60118000       5.56370000       1.04352000      -0.00777700       0.00433200       0.01391500
V        2.89328000       0.22159000       3.73030000       0.00777700      -0.00433200      -0.01391500
8
Lattice="5.404359566 -0.067783137 -0.13952364 -0.164698683 5.512428654 -0.153406941 0.254793885 0.340636291 5.066750111" Properties=species:S:1:pos:R:3:forces:R:3 batch_id=T generation=8 composition=V8 config_type=A15_aa source_path=V-Cr-Ti-W-Zr/Fixed_Engrads/vcrtiwzr_fin_engrads/job_gen_6-2024-12-23/V/V8_A15_idx_2973 temperature=T date_processed=2025-01-03T17:40:36.668053 structure_type=T structure_index=2973 adversarial_step=T structure_id=8479 energy=-66.00998382568359 stress="0.18810714504716358 -0.006220188130709241 0.0008874489750637111 -0.006220188130709241 0.19476141765455976 0.00310327209588003 0.0008874489750637111 0.00310327209588003 0.18109642609509735" calculation_info="_JSON {\"calculation_id\": 8479, \"calculator\": \"vasp\", \"calculation_source_path\": \"\", \"error\": null, \"status\": \"completed\", \"gpu_count\": null, \"parameters\": {}, \"date_started\": null, \"gpu_memory_mb\": null, \"model_version\": null, \"date_completed\": null, \"runtime_seconds\": null}" parent_id=8479 step=0 variance=0.4931936264038086 loss=0.4931936264038086 pbc="T T T"
V        0.00000000       0.00000000       0.00000000      -0.00000191       0.00000099      -0.00000116
V        2.74723000       2.89264000       2.38691000       0.00000124       0.00000203       0.00000220
V        1.26874000       2.73927000      -0.11158000      -0.03397607      -0.03212502      -0.01780699
V        4.22571000       3.04601000       4.88540000       0.03398087       0.03212247       0.01780705
V        5.49058000       1.48064000       2.35550000       0.04460557       0.00767389       0.04317059
V        0.00387000       4.30464000       2.41832000      -0.04460865      -0.00766733      -0.04316973
V        2.60118000       5.56370000       1.04352000       0.00536285      -0.00452387       0.02745494
V        2.89328000       0.22159000       3.73030000      -0.00536390       0.00451684      -0.02745696
8
Lattice="5.404359566 -0.067783137 -0.13952364 -0.164698683 5.512428654 -0.153406941 0.254793885 0.340636291 5.066750111" Properties=species:S:1:pos:R:3:forces:R:3 batch_id=T generation=8 composition=V8 config_type=A15_aa source_path=V-Cr-Ti-W-Zr/Fixed_Engrads/vcrtiwzr_fin_engrads/job_gen_6-2024-12-23/V/V8_A15_idx_2973 temperature=T date_processed=2025-01-03T17:40:36.668053 structure_type=T structure_index=2973 adversarial_step=T structure_id=8479 energy=-66.00940399169922 stress="0.18810714504716358 -0.006220188130709241 0.0008874489750637111 -0.006220188130709241 0.19476141765455976 0.00310327209588003 0.0008874489750637111 0.00310327209588003 0.18109642609509735" calculation_info="_JSON {\"calculation_id\": 8479, \"calculator\": \"vasp\", \"calculation_source_path\": \"\", \"error\": null, \"status\": \"completed\", \"gpu_count\": null, \"parameters\": {}, \"date_started\": null, \"gpu_memory_mb\": null, \"model_version\": null, \"date_completed\": null, \"runtime_seconds\": null}" parent_id=8479 step=1 variance=0.4929857552051544 loss=0.4929857552051544 pbc="T T T"
V       -0.01000000      -0.01000000      -0.01000000       0.00310139       0.00536880       0.00129369
V        2.73723000       2.88264000       2.37691000       0.00707610       0.00584730       0.00046289
V        1.25874000       2.72927000      -0.12158000      -0.02513156      -0.02959284      -0.01678189
V        4.21571000       3.03601000       4.87540000       0.04373110       0.03429484       0.01862324
V        5.48058000       1.47064000       2.34550000       0.04237226       0.01692023       0.04385975
V       -0.00613000       4.29464000       2.40832000      -0.04661485       0.00067389      -0.04218194
V        2.61118000       5.57370000       1.03352000      -0.00682190      -0.02138259       0.02478559
V        2.90328000       0.23159000       3.72030000      -0.01771257      -0.01212966      -0.03006135
8
Lattice="5.404359566 -0.067783137 -0.13952364 -0.164698683 5.512428654 -0.153406941 0.254793885 0.340636291 5.066750111" Properties=species:S:1:pos:R:3:forces:R:3 batch_id=T generation=8 composition=V8 config_type=A15_aa source_path=V-Cr-Ti-W-Zr/Fixed_Engrads/vcrtiwzr_fin_engrads/job_gen_6-2024-12-23/V/V8_A15_idx_2973 temperature=T date_processed=2025-01-03T17:40:36.668053 structure_type=T structure_index=2973 adversarial_step=T structure_id=8479 energy=-66.00836486816407 stress="0.18810714504716358 -0.006220188130709241 0.0008874489750637111 -0.006220188130709241 0.19476141765455976 0.00310327209588003 0.0008874489750637111 0.00310327209588003 0.18109642609509735" calculation_info="_JSON {\"calculation_id\": 8479, \"calculator\": \"vasp\", \"calculation_source_path\": \"\", \"error\": null, \"status\": \"completed\", \"gpu_count\": null, \"parameters\": {}, \"date_started\": null, \"gpu_memory_mb\": null, \"model_version\": null, \"date_completed\": null, \"runtime_seconds\": null}" parent_id=8479 step=2 variance=0.48848357796669006 loss=0.48848357796669006 pbc="T T T"
V       -0.01662715      -0.01666529      -0.01671282       0.00514085       0.00896861       0.00217468
V        2.73054798       2.87597446       2.37020683       0.01184187       0.00975575       0.00078424
V        1.25204678       2.72252493      -0.12828051      -0.01967884      -0.02758147      -0.01600234
V        4.20898535       3.02929368       4.86870507       0.05085613       0.03563740       0.01903324
V        5.47386904       1.46393735       2.33880686       0.04088290       0.02362769       0.04415562
V       -0.01284594       4.28792264       2.40162195      -0.04772312       0.00583427      -0.04136079
V        2.61789185       5.58039112       1.02682906      -0.01510182      -0.03291754       0.02288425
V        2.90996892       0.23829223       3.71357798      -0.02621801      -0.02332463      -0.03166892
8
Lattice="5.404359566 -0.067783137 -0.13952364 -0.164698683 5.512428654 -0.153406941 0.254793885 0.340636291 5.066750111" Properties=species:S:1:pos:R:3:forces:R:3 batch_id=T generation=8 composition=V8 config_type=A15_aa source_path=V-Cr-Ti-W-Zr/Fixed_Engrads/vcrtiwzr_fin_engrads/job_gen_6-2024-12-23/V/V8_A15_idx_2973 temperature=T date_processed=2025-01-03T17:40:36.668053 structure_type=T structure_index=2973 adversarial_step=T structure_id=8479 energy=-66.00719604492187 stress="0.18810714504716358 -0.006220188130709241 0.0008874489750637111 -0.006220188130709241 0.19476141765455976 0.00310327209588003 0.0008874489750637111 0.00310327209588003 0.18109642609509735" calculation_info="_JSON {\"calculation_id\": 8479, \"calculator\": \"vasp\", \"calculation_source_path\": \"\", \"error\": null, \"status\": \"completed\", \"gpu_count\": null, \"parameters\": {}, \"date_started\": null, \"gpu_memory_mb\": null, \"model_version\": null, \"date_completed\": null, \"runtime_seconds\": null}" parent_id=8479 step=3 variance=0.48817121982574463 loss=0.48817121982574463 pbc="T T T"
V       -0.02171429      -0.02179982      -0.02190937       0.00674546       0.01176735       0.00286497
V        2.72539133       2.87083990       2.36502223       0.01554277       0.01279392       0.00104079
V        1.24687874       2.71727526      -0.13346287      -0.01572429      -0.02583007      -0.01535052
V        4.20377389       3.02409685       4.86353438       0.05669668       0.03664319       0.01927187
V        5.46867641       1.45875666       2.33363801       0.03978791       0.02909433       0.04429161
V       -0.01804709       4.28272354       2.39644450      -0.04841495       0.00960737      -0.04063547
V        2.62307928       5.58556456       1.02166614      -0.02161906      -0.04203683       0.02134786
V        2.91514156       0.24346590       3.70836773      -0.03301453      -0.03203934      -0.03283117
8
Lattice="5.404359566 -0.067783137 -0.13952364 -0.164698683 5.512428654 -0.153406941 0.254793885 0.340636291 5.066750111" Properties=species:S:1:pos:R:3:forces:R:3 batch_id=T generation=8 composition=V8 config_type=A15_aa source_path=V-Cr-Ti-W-Zr/Fixed_Engrads/vcrtiwzr_fin_engrads/job_gen_6-2024-12-23/V/V8_A15_idx_2973 temperature=T date_processed=2025-01-03T17:40:36.668053 structure_type=T structure_index=2973 adversarial_step=T structure_id=8479 energy=-66.0060028076172 stress="0.18810714504716358 -0.006220188130709241 0.0008874489750637111 -0.006220188130709241 0.19476141765455976 0.00310327209588003 0.0008874489750637111 0.00310327209588003 0.18109642609509735" calculation_info="_JSON {\"calculation_id\": 8479, \"calculator\": \"vasp\", \"calculation_source_path\": \"\", \"error\": null, \"status\": \"completed\", \"gpu_count\": null, \"parameters\": {}, \"date_started\": null, \"gpu_memory_mb\": null, \"model_version\": null, \"date_completed\": null, \"runtime_seconds\": null}" parent_id=8479 step=4 variance=0.4875086545944214 loss=0.4875086545944214 pbc="T T T"
V       -0.02585685      -0.02599240      -0.02617010       0.00809060       0.01407096       0.00343991
V        2.72117528       2.86664623       2.36077175       0.01858801       0.01530463       0.00126348
V        1.24265104       2.71294712      -0.13771086      -0.01265522      -0.02425164      -0.01478726
V        4.19949744       3.01983721       4.85930288       0.06170275       0.03747374       0.01941204
V        5.46441965       1.45451367       2.32940728       0.03895601       0.03375340       0.04433893
V       -0.02231597       4.27846159       2.39220287      -0.04886607       0.01256079      -0.03999242
V        2.62732395       5.58980238       1.01744458      -0.02706174      -0.04966066       0.02003756
V        2.91938299       0.24770290       3.70409014      -0.03875429      -0.03925125      -0.03371235
8
Lattice="5.404359566 -0.067783137 -0.13952364 -0.164698683 5.512428654 -0.153406941 0.254793885 0.340636291 5.066750111" Properties=species:S:1:pos:R:3:forces:R:3 batch_id=T generation=8 composition=V8 config_type=A15_aa source_path=V-Cr-Ti-W-Zr/Fixed_Engrads/vcrtiwzr_fin_engrads/job_gen_6-2024-12-23/V/V8_A15_idx_2973 temperature=T date_processed=2025-01-03T17:40:36.668053 structure_type=T structure_index=2973 adversarial_step=T structure_id=8479 energy=-66.00481567382812 stress="0.18810714504716358 -0.006220188130709241 0.0008874489750637111 -0.006220188130709241 0.19476141765455976 0.00310327209588003 0.0008874489750637111 0.00310327209588003 0.18109642609509735" calculation_info="_JSON {\"calculation_id\": 8479, \"calculator\": \"vasp\", \"calculation_source_path\": \"\", \"error\": null, \"status\": \"completed\", \"gpu_count\": null, \"parameters\": {}, \"date_started\": null, \"gpu_memory_mb\": null, \"model_version\": null, \"date_completed\": null, \"runtime_seconds\": null}" parent_id=8479 step=5 variance=0.48573121428489685 loss=0.48573121428489685 pbc="T T T"
V       -0.02934024      -0.02952619      -0.02977422       0.00925780       0.01603229       0.00393373
V        2.71761705       2.86311132       2.35717541       0.02117152       0.01744245       0.00145731
V        1.23908262       2.70926448      -0.14130457      -0.01018390      -0.02281877      -0.01429167
V        4.19587824       3.01623511       4.85572983       0.06609090       0.03818406       0.01949917
V        5.46081908       1.45092806       2.32583381       0.03831687       0.03782479       0.04433285
V       -0.02593186       4.27485774       2.38861680      -0.04915084       0.01496989      -0.03940732
V        2.63090658       5.59338304       1.01388299      -0.03175415      -0.05622138       0.01889167
V        2.92297197       0.25128314       3.70046758      -0.04374823      -0.04541332      -0.03441577
8
Lattice="5.404359566 -0.067783137 -0.13952364 -0.164698683 5.512428654 -0.153406941 0.254793885 0.340636291 5.066750111" Properties=species:S:1:pos:R:3:forces:R:3 batch_id=T generation=8 composition=V8 config_type=A15_aa source_path=V-Cr-Ti-W-Zr/Fixed_Engrads/vcrtiwzr_fin_engrads/job_gen_6-2024-12-23/V/V8_A15_idx_2973 temperature=T date_processed=2025-01-03T17:40:36.668053 structure_type=T structure_index=2973 adversarial_step=T structure_id=8479 energy=-66.00366821289063 stress="0.18810714504716358 -0.006220188130709241 0.0008874489750637111 -0.006220188130709241 0.19476141765455976 0.00310327209588003 0.0008874489750637111 0.00310327209588003 0.18109642609509735" calculation_info="_JSON {\"calculation_id\": 8479, \"calculator\": \"vasp\", \"calculation_source_path\": \"\", \"error\": null, \"status\": \"completed\", \"gpu_count\": null, \"parameters\": {}, \"date_started\": null, \"gpu_memory_mb\": null, \"model_version\": null, \"date_completed\": null, \"runtime_seconds\": null}" parent_id=8479 step=6 variance=0.48310667276382446 loss=0.48310667276382446 pbc="T T T"
V       -0.03232753      -0.03256323      -0.03288176       0.01028429       0.01773320       0.00436333
V        2.71455608       2.86007276       2.35407252       0.02341002       0.01929263       0.00163051
V        1.23601214       2.70606945      -0.14440484      -0.00814494      -0.02150021      -0.01385133
V        4.19275566       3.01312933       4.85265333       0.06998374       0.03881134       0.01954522
V        5.45771360       1.44783847       2.32275616       0.03782027       0.04143032       0.04429502
V       -0.02905547       4.27175098       2.38552496      -0.04932974       0.01697693      -0.03888585
V        2.63398879       5.59646705       1.01081929      -0.03586050      -0.06196062       0.01788281
V        2.92606856       0.25436866       3.69733982      -0.04816319      -0.05078354      -0.03497973
8
Lattice="5.404359566 -0.067783137 -0.13952364 -0.164698683 5.512428654 -0.153406941 0.254793885 0.340636291 5.066750111" Properties=species:S:1:pos:R:3:forces:R:3 batch_id=T generation=8 composition=V8 config_type=A15_aa source_path=V-Cr-Ti-W-Zr/Fixed_Engrads/vcrtiwzr_fin_engrads/job_gen_6-2024-12-23/V/V8_A15_idx_2973 temperature=T date_processed=2025-01-03T17:40:36.668053 structure_type=T structure_index=2973 adversarial_step=T structure_id=8479 energy=-66.00256805419922 stress="0.18810714504716358 -0.006220188130709241 0.0008874489750637111 -0.006220188130709241 0.19476141765455976 0.00310327209588003 0.0008874489750637111 0.00310327209588003 0.18109642609509735" calculation_info="_JSON {\"calculation_id\": 8479, \"calculator\": \"vasp\", \"calculation_source_path\": \"\", \"error\": null, \"status\": \"completed\", \"gpu_count\": null, \"parameters\": {}, \"date_started\": null, \"gpu_memory_mb\": null, \"model_version\": null, \"date_completed\": null, \"runtime_seconds\": null}" parent_id=8479 step=7 variance=0.47988593578338623 loss=0.47988593578338623 pbc="T T T"
V       -0.03492366      -0.03520870      -0.03559680       0.01119849       0.01922419       0.00474388
V        2.71188381       2.85742534       2.35135898       0.02537371       0.02092142       0.00178935
V        1.23333510       2.70326014      -0.14711503      -0.00643398      -0.02029223      -0.01345657
V        4.19002649       3.01041582       4.84996924       0.07346823       0.03937701       0.01956009
V        5.45499956       1.44514096       2.32007028       0.03743955       0.04465027       0.04423414
V       -0.03179026       4.26903794       2.38282351      -0.04943348       0.01867805      -0.03841320
V        2.63667412       5.59915612       1.00814836      -0.03949875      -0.06703324       0.01698461
V        2.92877537       0.25706224       3.69460376      -0.05211378      -0.05552541      -0.03544236
8
Lattice="5.404359566 -0.067783137 -0.13952364 -0.164698683 5.512428654 -0.153406941 0.254793885 0.340636291 5.066750111" Properties=species:S:1:pos:R:3:forces:R:3 batch_id=T generation=8 composition=V8 config_type=A15_aa source_path=V-Cr-Ti-W-Zr/Fixed_Engrads/vcrtiwzr_fin_engrads/job_gen_6-2024-12-23/V/V8_A15_idx_2973 temperature=T date_processed=2025-01-03T17:40:36.668053 structure_type=T structure_index=2973 adversarial_step=T structure_id=8479 energy=-66.00151824951172 stress="0.18810714504716358 -0.006220188130709241 0.0008874489750637111 -0.006220188130709241 0.19476141765455976 0.00310327209588003 0.0008874489750637111 0.00310327209588003 0.18109642609509735" calculation_info="_JSON {\"calculation_id\": 8479, \"calculator\": \"vasp\", \"calculation_source_path\": \"\", \"error\": null, \"status\": \"completed\", \"gpu_count\": null, \"parameters\": {}, \"date_started\": null, \"gpu_memory_mb\": null, \"model_version\": null, \"date_completed\": null, \"runtime_seconds\": null}" parent_id=8479 step=8 variance=0.47633683681488037 loss=0.47633683681488037 pbc="T T T"
V       -0.03720086      -0.03753469      -0.03799066       0.01201887       0.02054562       0.00508499
V        2.70953109       2.85509749       2.34896360       0.02711245       0.02236142       0.00193036
V        1.23097962       2.70076624      -0.14950660      -0.00498141      -0.01917708      -0.01309867
V        4.18761945       3.00802352       4.84760607       0.07660460       0.03988717       0.01956001
V        5.45260544       1.44276368       2.31770424       0.03714407       0.04754198       0.04415945
V       -0.03420766       4.26664700       2.38044062      -0.04947983       0.02014054      -0.03798441
V        2.63903550       5.60152271       1.00579745      -0.04274928      -0.07155156       0.01617362
V        2.93116474       0.25943709       3.69218852      -0.05566949      -0.05974814      -0.03582529
8
Lattice="5.404359566 -0.067783137 -0.13952364 -0.164698683 5.512428654 -0.153406941 0.254793885 0.340636291 5.066750111" Properties=species:S:1:pos:R:3:forces:R:3 batch_id=T generation=8 composition=V8 config_type=A15_aa source_path=V-Cr-Ti-W-Zr/Fixed_Engrads/vcrtiwzr_fin_engrads/job_gen_6-2024-12-23/V/V8_A15_idx_2973 temperature=T date_processed=2025-01-03T17:40:36.668053 structure_type=T structure_index=2973 adversarial_step=T structure_id=8479 energy=-66.00052642822266 stress="0.18810714504716358 -0.006220188130709241 0.0008874489750637111 -0.006220188130709241 0.19476141765455976 0.00310327209588003 0.0008874489750637111 0.00310327209588003 0.18109642609509735" calculation_info="_JSON {\"calculation_id\": 8479, \"calculator\": \"vasp\", \"calculation_source_path\": \"\", \"error\": null, \"status\": \"completed\", \"gpu_count\": null, \"parameters\": {}, \"date_started\": null, \"gpu_memory_mb\": null, \"model_version\": null, \"date_completed\": null, \"runtime_seconds\": null}" parent_id=8479 step=9 variance=0.47262659668922424 loss=0.47262659668922424 pbc="T T T"
V       -0.03921228      -0.03959370      -0.04011675       0.01275113       0.02172547       0.00539305
V        2.70744509       2.85303657       2.34683432       0.02866394       0.02364169       0.00206034
V        1.22889269       2.69853608      -0.15163185      -0.00373403      -0.01814988      -0.01277664
V        4.18548192       3.00589945       4.84551071       0.07944001       0.04035259       0.01954764
V        5.45047870       1.44065374       2.31560529       0.03692262       0.05015101       0.04407416
V       -0.03636002       4.26452591       2.37832390      -0.04949036       0.02140457      -0.03759950
V        2.64112542       5.60361822       1.00371308      -0.04566471      -0.07559233       0.01544582
V        2.93328777       0.26154516       3.69004204      -0.05888858      -0.06353313      -0.03614483
8
Lattice="5.404359566 -0.067783137 -0.13952364 -0.164698683 5.512428654 -0.153406941 0.254793885 0.340636291 5.066750111" Properties=species:S:1:pos:R:3:forces:R:3 batch_id=T generation=8 composition=V8 config_type=A15_aa source_path=V-Cr-Ti-W-Zr/Fixed_Engrads/vcrtiwzr_fin_engrads/job_gen_6-2024-12-23/V/V8_A15_idx_2973 temperature=T date_processed=2025-01-03T17:40:36.668053 structure_type=T structure_index=2973 adversarial_step=T structure_id=8479 energy=-65.99959869384766 stress="0.18810714504716358 -0.006220188130709241 0.0008874489750637111 -0.006220188130709241 0.19476141765455976 0.00310327209588003 0.0008874489750637111 0.00310327209588003 0.18109642609509735" calculation_info="_JSON {\"calculation_id\": 8479, \"calculator\": \"vasp\", \"calculation_source_path\": \"\", \"error\": null, \"status\": \"completed\", \"gpu_count\": null, \"parameters\": {}, \"date_started\": null, \"gpu_memory_mb\": null, \"model_version\": null, \"date_completed\": null, \"runtime_seconds\": null}" parent_id=8479 step=10 variance=0.4688825011253357 loss=0.4688825011253357 pbc="T T T"
V       -0.04099770      -0.04142652      -0.04201464       0.01341042       0.02278295       0.00566945
V        2.70558712       2.85120246       2.34493134       0.03004973       0.02478370       0.00217890
V        1.22703418       2.69653052      -0.15353071      -0.00265367      -0.01720069      -0.01248603
V        4.18357392       3.00400397       4.84364312       0.08200659       0.04077946       0.01952411
V        5.44857940       1.43877112       2.31373347       0.03675556       0.05250715       0.04398759
V       -0.03828695       4.26263505       2.37643328      -0.04946906       0.02251204      -0.03725231
V        2.64298425       5.60548157       1.00185472      -0.04828771      -0.07921866       0.01479212
V        2.93518414       0.26342609       3.68812459      -0.06181186      -0.06694588      -0.03641386
8
Lattice="5.404359566 -0.067783137 -0.13952364 -0.164698683 5.512428654 -0.153406941 0.254793885 0.340636291 5.066750111" Properties=species:S:1:pos:R:3:forces:R:3 batch_id=T generation=8 composition=V8 config_type=A15_aa source_path=V-Cr-Ti-W-Zr/Fixed_Engrads/vcrtiwzr_fin_engrads/job_gen_6-2024-12-23/V/V8_A15_idx_2973 temperature=T date_processed=2025-01-03T17:40:36.668053 structure_type=T structure_index=2973 adversarial_step=T structure_id=8479 energy=-65.9987289428711 stress="0.18810714504716358 -0.006220188130709241 0.0008874489750637111 -0.006220188130709241 0.19476141765455976 0.00310327209588003 0.0008874489750637111 0.00310327209588003 0.18109642609509735" calculation_info="_JSON {\"calculation_id\": 8479, \"calculator\": \"vasp\", \"calculation_source_path\": \"\", \"error\": null, \"status\": \"completed\", \"gpu_count\": null, \"parameters\": {}, \"date_started\": null, \"gpu_memory_mb\": null, \"model_version\": null, \"date_completed\": null, \"runtime_seconds\": null}" parent_id=8479 step=11 variance=0.4652147889137268 loss=0.4652147889137268 pbc="T T T"
V       -0.04258842      -0.04306416      -0.04371532       0.01400186       0.02373561       0.00592167
V        2.70392466       2.84956389       2.34322366       0.03130228       0.02580586       0.00228784
V        1.22537234       2.69471806      -0.15523434      -0.00171192      -0.01632001      -0.01221933
V        4.18186437       3.00230564       4.84197200       0.08433123       0.04116682       0.01949097
V        5.44687626       1.43708440       2.31205750       0.03663556       0.05464466       0.04389387
V       -0.04001946       4.26094302       2.37473766      -0.04943139       0.02347996      -0.03693724
V        2.64464376       5.60714433       1.00019049      -0.05065477      -0.08248027       0.01420765
V        2.93688530       0.26511185       3.68640517      -0.06447283      -0.07003263      -0.03664537
8
Lattice="5.404359566 -0.067783137 -0.13952364 -0.164698683 5.512428654 -0.153406941 0.254793885 0.340636291 5.066750111" Properties=species:S:1:pos:R:3:forces:R:3 batch_id=T generation=8 composition=V8 config_type=A15_aa source_path=V-Cr-Ti-W-Zr/Fixed_Engrads/vcrtiwzr_fin_engrads/job_gen_6-2024-12-23/V/V8_A15_idx_2973 temperature=T date_processed=2025-01-03T17:40:36.668053 structure_type=T structure_index=2973 adversarial_step=T structure_id=8479 energy=-65.99790954589844 stress="0.18810714504716358 -0.006220188130709241 0.0008874489750637111 -0.006220188130709241 0.19476141765455976 0.00310327209588003 0.0008874489750637111 0.00310327209588003 0.18109642609509735" calculation_info="_JSON {\"calculation_id\": 8479, \"calculator\": \"vasp\", \"calculation_source_path\": \"\", \"error\": null, \"status\": \"completed\", \"gpu_count\": null, \"parameters\": {}, \"date_started\": null, \"gpu_memory_mb\": null, \"model_version\": null, \"date_completed\": null, \"runtime_seconds\": null}" parent_id=8479 step=12 variance=0.46168261766433716 loss=0.46168261766433716 pbc="T T T"
V       -0.04401020      -0.04453198      -0.04524468       0.01453547       0.02459380       0.00615375
V        2.70243272       2.84809559       2.34168594       0.03242861       0.02671968       0.00238613
V        1.22388175       2.69307380      -0.15676795      -0.00088379      -0.01549858      -0.01197941
V        4.18032785       3.00077918       4.84047185       0.08644202       0.04152068       0.01945514
V        5.44534391       1.43556813       2.31055197       0.03655209       0.05657960       0.04380240
V       -0.04158283       4.25942461       2.37321160      -0.04938003       0.02433227      -0.03665105
V        2.64612951       5.60863172       0.99869457      -0.05279271      -0.08541514       0.01367766
V        2.93841615       0.26662756       3.68485886      -0.06690173      -0.07283231      -0.03684457
8
Lattice="5.404359566 -0.067783137 -0.13952364 -0.164698683 5.512428654 -0.153406941 0.254793885 0.340636291 5.066750111" Properties=species:S:1:pos:R:3:forces:R:3 batch_id=T generation=8 composition=V8 config_type=A15_aa source_path=V-Cr-Ti-W-Zr/Fixed_Engrads/vcrtiwzr_fin_engrads/job_gen_6-2024-12-23/V/V8_A15_idx_2973 temperature=T date_processed=2025-01-03T17:40:36.668053 structure_type=T structure_index=2973 adversarial_step=T structure_id=8479 energy=-65.99715423583984 stress="0.18810714504716358 -0.006220188130709241 0.0008874489750637111 -0.006220188130709241 0.19476141765455976 0.00310327209588003 0.0008874489750637111 0.00310327209588003 0.18109642609509735" calculation_info="_JSON {\"calculation_id\": 8479, \"calculator\": \"vasp\", \"calculation_source_path\": \"\", \"error\": null, \"status\": \"completed\", \"gpu_count\": null, \"parameters\": {}, \"date_started\": null, \"gpu_memory_mb\": null, \"model_version\": null, \"date_completed\": null, \"runtime_seconds\": null}" parent_id=8479 step=13 variance=0.4583534598350525 loss=0.4583534598350525 pbc="T T T"
V       -0.04528315      -0.04585077      -0.04662212       0.01500832       0.02537283       0.00636379
V        2.70109269       2.84677686       2.34029806       0.03345177       0.02753955       0.00247740
V        1.22254181       2.69157776      -0.15815196      -0.00015061      -0.01473677      -0.01175494
V        4.17894360       2.99940385       4.83912185       0.08835702       0.04184555       0.01941420
V        5.44396172       1.43420137       2.30919617       0.03649903       0.05833732       0.04370692
V       -0.04299744       4.25805948       2.37183459      -0.04931863       0.02508792      -0.03639396
V        2.64746242       5.60996504       0.99734577      -0.05472319      -0.08806823       0.01321015
V        2.93979751       0.26799387       3.68346518      -0.06912369      -0.07537812      -0.03702354
8
Lattice="5.404359566 -0.067783137 -0.13952364 -0.164698683 5.512428654 -0.153406941 0.254793885 0.340636291 5.066750111" Properties=species:S:1:pos:R:3:forces:R:3 batch_id=T generation=8 composition=V8 config_type=A15_aa source_path=V-Cr-Ti-W-Zr/Fixed_Engrads/vcrtiwzr_fin_engrads/job_gen_6-2024-12-23/V/V8_A15_idx_2973 temperature=T date_processed=2025-01-03T17:40:36.668053 structure_type=T structure_index=2973 adversarial_step=T structure_id=8479 energy=-65.99644317626954 stress="0.18810714504716358 -0.006220188130709241 0.0008874489750637111 -0.006220188130709241 0.19476141765455976 0.00310327209588003 0.0008874489750637111 0.00310327209588003 0.18109642609509735" calculation_info="_JSON {\"calculation_id\": 8479, \"calculator\": \"vasp\", \"calculation_source_path\": \"\", \"error\": null, \"status\": \"completed\", \"gpu_count\": null, \"parameters\": {}, \"date_started\": null, \"gpu_memory_mb\": null, \"model_version\": null, \"date_completed\": null, \"runtime_seconds\": null}" parent_id=8479 step=14 variance=0.45525795221328735 loss=0.45525795221328735 pbc="T T T"