6
Lattice="-0.366735412 3.332101298 3.904978009 3.972356704 -0.207233116 3.426512495 3.729070151 4.03048306 -0.233305787" Properties=species:S:1:pos:R:3:forces:R:3 batch_id=T generation=6 composition=V6 config_type=C15 source_path=V-Cr-Ti-W-Zr/Fixed_Engrads/vcrtiwzr_fin_engrads/job_gen_6-2024-12-23/V/V6_C15_idx_3095 temperature=T date_processed=2025-01-03T17:40:31.813187 structure_type=T structure_index=3095 adversarial_step=T structure_id=8404 energy=-48.866253 stress="0.18885764907049626 0.001825323102355433 -0.013690431950659507 0.001825323102355433 0.17639491572338892 -0.009045469651631558 -0.013690431950659507 -0.009045469651631558 0.17681214188392683" calculation_info="_JSON {\"calculation_id\": 8404, \"calculator\": \"vasp\", \"calculation_source_path\": \"\", \"error\": null, \"status\": \"completed\", \"gpu_count\": null, \"parameters\": {}, \"date_started\": null, \"gpu_memory_mb\": null, \"model_version\": null, \"date_completed\": null, \"runtime_seconds\": null}" pbc="T T T"
V        0.91684000       0.89442000       0.88727000       0.00000000       0.00000000       0.00000000
V        2.90301000       0.79080000       2.60053000       0.00000000       0.00000000       0.00000000
V        2.78137000       2.90966000       0.77062000       0.00000000       0.00000000       0.00000000
V        0.73347000       2.56047000       2.83976000       0.00000000       0.00000000       0.00000000
V        3.66735000       3.57768000       3.54909000      -0.04873800       0.00304800      -0.01547900
V        5.50102000       5.36651000       5.32364000       0.04873800      -0.00304800       0.01547900
6
Lattice="-0.366735412 3.332101298 3.904978009 3.972356704 -0.207233116 3.426512495 3.729070151 4.03048306 -0.233305787" Properties=species:S:1:pos:R:3:forces:R:3 batch_id=T generation=8 composition=V6 config_type=C15_aa source_path=V-Cr-Ti-W-Zr/Fixed_Engrads/vcrtiwzr_fin_engrads/job_gen_6-2024-12-23/V/V6_C15_idx_3095 temperature=T date_processed=2025-01-03T17:40:31.813187 structure_type=T structure_index=3095 adversarial_step=T structure_id=8404 energy=-48.89039001464844 stress="0.18885764907049626 0.001825323102355433 -0.013690431950659507 0.001825323102355433 0.17639491572338892 -0.009045469651631558 -0.013690431950659507 -0.009045469651631558 0.17681214188392683" calculation_info="_JSON {\"calculation_id\": 8404, \"calculator\": \"vasp\", \"calculation_source_path\": \"\", \"error\": null, \"status\": \"completed\", \"gpu_count\": null, \"parameters\": {}, \"date_started\": null, \"gpu_memory_mb\": null, \"model_version\": null, \"date_completed\": null, \"runtime_seconds\": null}" parent_id=8404 step=0 variance=0.4690280854701996 loss=0.4690280854701996 pbc="T T T"
V        0.91684000       0.89442000       0.88727000      -0.00001634       0.00000179       0.00000809
V        2.90301000       0.79080000       2.60053000       0.00002540       0.00000632       0.00000037
V        2.78137000       2.90966000       0.77062000       0.00000676       0.00000473      -0.00000153
V        0.73347000       2.56047000       2.83976000       0.00000184      -0.00000111      -0.00000254
V        3.66735000       3.57768000       3.54909000      -0.05434757      -0.02721824      -0.09099786
V        5.50102000       5.36651000       5.32364000       0.05432992       0.02720652       0.09099344
6
Lattice="-0.366735412 3.332101298 3.904978009 3.972356704 -0.207233116 3.426512495 3.729070151 4.03048306 -0.233305787" Properties=species:S:1:pos:R:3:forces:R:3 batch_id=T generation=8 composition=V6 config_type=C15_aa source_path=V-Cr-Ti-W-Zr/Fixed_Engrads/vcrtiwzr_fin_engrads/job_gen_6-2024-12-23/V/V6_C15_idx_3095 temperature=T date_processed=2025-01-03T17:40:31.813187 structure_type=T structure_index=3095 adversarial_step=T structure_id=8404 energy=-48.889279174804685 stress="0.18885764907049626 0.001825323102355433 -0.013690431950659507 0.001825323102355433 0.17639491572338892 -0.009045469651631558 -0.013690431950659507 -0.009045469651631558 0.17681214188392683" calculation_info="_JSON {\"calculation_id\": 8404, \"calculator\": \"vasp\", \"calculation_source_path\": \"\", \"error\": null, \"status\": \"completed\", \"gpu_count\": null, \"parameters\": {}, \"date_started\": null, \"gpu_memory_mb\": null, \"model_version\": null, \"date_completed\": null, \"runtime_seconds\": null}" parent_id=8404 step=1 variance=0.5954214930534363 loss=0.5954214930534363 pbc="T T T"
V        0.90684000       0.88442000       0.87727000       0.02864282       0.00768316       0.01942387
V        2.89301000       0.80080000       2.59053000      -0.00862970      -0.04674929       0.00269519
V        2.77137000       2.89966000       0.78062000      -0.00069275       0.00744345      -0.02736760
V        0.74347000       2.55047000       2.82976000      -0.03749332       0.00396236       0.00426123
V        3.65735000       3.56768000       3.53909000      -0.04277989      -0.01043548      -0.08792032
V        5.49102000       5.35651000       5.31364000       0.06095285       0.03809575       0.08890762
6
Lattice="-0.366735412 3.332101298 3.904978009 3.972356704 -0.207233116 3.426512495 3.729070151 4.03048306 -0.233305787" Properties=species:S:1:pos:R:3:forces:R:3 batch_id=T generation=8 composition=V6 config_type=C15_aa source_path=V-Cr-Ti-W-Zr/Fixed_Engrads/vcrtiwzr_fin_engrads/job_gen_6-2024-12-23/V/V6_C15_idx_3095 temperature=T date_processed=2025-01-03T17:40:31.813187 structure_type=T structure_index=3095 adversarial_step=T structure_id=8404 energy=-48.887332153320315 stress="0.18885764907049626 0.001825323102355433 -0.013690431950659507 0.001825323102355433 0.17639491572338892 -0.009045469651631558 -0.013690431950659507 -0.009045469651631558 0.17681214188392683" calculation_info="_JSON {\"calculation_id\": 8404, \"calculator\": \"vasp\", \"calculation_source_path\": \"\", \"error\": null, \"status\": \"completed\", \"gpu_count\": null, \"parameters\": {}, \"date_started\": null, \"gpu_memory_mb\": null, \"model_version\": null, \"date_completed\": null, \"runtime_seconds\": null}" parent_id=8404 step=2 variance=0.6262655258178711 loss=0.6262655258178711 pbc="T T T"
V        0.90040229       0.87782080       0.87073771       0.04538452       0.01208643       0.03090057
V        2.88609293       0.80752816       2.58369181      -0.01286002      -0.07945424       0.00557074
V        2.76468200       2.89301698       0.78734854      -0.00120153       0.01236830      -0.04719766
V        0.74929036       2.54370860       2.82299007      -0.06112515       0.00716103       0.00785650
V        3.65060426       3.56094807       3.53235992      -0.03263055       0.00480923      -0.08241393
V        5.48424531       5.34975663       5.30691715       0.06243280       0.04302926       0.08528377
6
Lattice="-0.366735412 3.332101298 3.904978009 3.972356704 -0.207233116 3.426512495 3.729070151 4.03048306 -0.233305787" Properties=species:S:1:pos:R:3:forces:R:3 batch_id=T generation=8 composition=V6 config_type=C15_aa source_path=V-Cr-Ti-W-Zr/Fixed_Engrads/vcrtiwzr_fin_engrads/job_gen_6-2024-12-23/V/V6_C15_idx_3095 temperature=T date_processed=2025-01-03T17:40:31.813187 structure_type=T structure_index=3095 adversarial_step=T structure_id=8404 energy=-48.88516693115234 stress="0.18885764907049626 0.001825323102355433 -0.013690431950659507 0.001825323102355433 0.17639491572338892 -0.009045469651631558 -0.013690431950659507 -0.009045469651631558 0.17681214188392683" calculation_info="_JSON {\"calculation_id\": 8404, \"calculator\": \"vasp\", \"calculation_source_path\": \"\", \"error\": null, \"status\": \"completed\", \"gpu_count\": null, \"parameters\": {}, \"date_started\": null, \"gpu_memory_mb\": null, \"model_version\": null, \"date_completed\": null, \"runtime_seconds\": null}" parent_id=8404 step=3 variance=0.6536086201667786 loss=0.6536086201667786 pbc="T T T"
V        0.89554595       0.87271329       0.86576913       0.05709307       0.01532337       0.03902437
V        2.88064271       0.81274886       2.57833760      -0.01513380      -0.10598429       0.00850312
V        2.75947271       2.88791021       0.79255250      -0.00135714       0.01646349      -0.06381296
V        0.75338122       2.53846567       2.81772268      -0.07917771       0.00992172       0.01113043
V        3.64537865       3.55574282       3.52714682      -0.02347577       0.01869571      -0.07622491
V        5.47897502       5.34452051       5.30171409       0.06205136       0.04557993       0.08137985
6
Lattice="-0.366735412 3.332101298 3.904978009 3.972356704 -0.207233116 3.426512495 3.729070151 4.03048306 -0.233305787" Properties=species:S:1:pos:R:3:forces:R:3 batch_id=T generation=8 composition=V6 config_type=C15_aa source_path=V-Cr-Ti-W-Zr/Fixed_Engrads/vcrtiwzr_fin_engrads/job_gen_6-2024-12-23/V/V6_C15_idx_3095 temperature=T date_processed=2025-01-03T17:40:31.813187 structure_type=T structure_index=3095 adversarial_step=T structure_id=8404 energy=-48.8829460144043 stress="0.18885764907049626 0.001825323102355433 -0.013690431950659507 0.001825323102355433 0.17639491572338892 -0.009045469651631558 -0.013690431950659507 -0.009045469651631558 0.17681214188392683" calculation_info="_JSON {\"calculation_id\": 8404, \"calculator\": \"vasp\", \"calculation_source_path\": \"\", \"error\": null, \"status\": \"completed\", \"gpu_count\": null, \"parameters\": {}, \"date_started\": null, \"gpu_memory_mb\": null, \"model_version\": null, \"date_completed\": null, \"runtime_seconds\": null}" parent_id=8404 step=4 variance=0.6769208312034607 loss=0.6769208312034607 pbc="T T T"
V        0.89163305       0.86850526       0.86174430       0.06599323       0.01793041       0.04524877
V        2.87612335       0.81703899       2.57391287      -0.01631442      -0.12873456       0.01141248
V        2.75517157       2.88374346       0.79681758      -0.00125772       0.02015051      -0.07846345
V        0.75652711       2.53416576       2.81338772      -0.09414909       0.01238429       0.01417802
V        3.64109309       3.55147952       3.52286824      -0.01508991       0.03140998      -0.06987749
V        5.47463963       5.34022618       5.29745095       0.06081795       0.04685937       0.07750173
6
Lattice="-0.366735412 3.332101298 3.904978009 3.972356704 -0.207233116 3.426512495 3.729070151 4.03048306 -0.233305787" Properties=species:S:1:pos:R:3:forces:R:3 batch_id=T generation=8 composition=V6 config_type=C15_aa source_path=V-Cr-Ti-W-Zr/Fixed_Engrads/vcrtiwzr_fin_engrads/job_gen_6-2024-12-23/V/V6_C15_idx_3095 temperature=T date_processed=2025-01-03T17:40:31.813187 structure_type=T structure_index=3095 adversarial_step=T structure_id=8404 energy=-48.880741882324216 stress="0.18885764907049626 0.001825323102355433 -0.013690431950659507 0.001825323102355433 0.17639491572338892 -0.009045469651631558 -0.013690431950659507 -0.009045469651631558 0.17681214188392683" calculation_info="_JSON {\"calculation_id\": 8404, \"calculator\": \"vasp\", \"calculation_source_path\": \"\", \"error\": null, \"status\": \"completed\", \"gpu_count\": null, \"parameters\": {}, \"date_started\": null, \"gpu_memory_mb\": null, \"model_version\": null, \"date_completed\": null, \"runtime_seconds\": null}" parent_id=8404 step=5 variance=0.6926965117454529 loss=0.6926965117454529 pbc="T T T"
V        0.88836637       0.86492278       0.85837073       0.07307431       0.02012686       0.05023015
V        2.87227018       0.82067393       2.57014746      -0.01681090      -0.14877880       0.01425389
V        2.75150931       2.88023183       0.80042524      -0.00097957       0.02358105      -0.09168682
V        0.75907157       2.53052781       2.80970979      -0.10709846       0.01461990       0.01704856
V        3.63746695       3.54787948       3.51924498      -0.00735506       0.04307972      -0.06360976
V        5.47096421       5.33659639       5.29384961       0.05916970       0.04737126       0.07376396
6
Lattice="-0.366735412 3.332101298 3.904978009 3.972356704 -0.207233116 3.426512495 3.729070151 4.03048306 -0.233305787" Properties=species:S:1:pos:R:3:forces:R:3 batch_id=T generation=8 composition=V6 config_type=C15_aa source_path=V-Cr-Ti-W-Zr/Fixed_Engrads/vcrtiwzr_fin_engrads/job_gen_6-2024-12-23/V/V6_C15_idx_3095 temperature=T date_processed=2025-01-03T17:40:31.813187 structure_type=T structure_index=3095 adversarial_step=T structure_id=8404 energy=-48.87859573364258 stress="0.18885764907049626 0.001825323102355433 -0.013690431950659507 0.001825323102355433 0.17639491572338892 -0.009045469651631558 -0.013690431950659507 -0.009045469651631558 0.17681214188392683" calculation_info="_JSON {\"calculation_id\": 8404, \"calculator\": \"vasp\", \"calculation_source_path\": \"\", \"error\": null, \"status\": \"completed\", \"gpu_count\": null, \"parameters\": {}, \"date_started\": null, \"gpu_memory_mb\": null, \"model_version\": null, \"date_completed\": null, \"runtime_seconds\": null}" parent_id=8404 step=6 variance=0.7027778625488281 loss=0.7027778625488281 pbc="T T T"
V        0.88557906       0.86181104       0.85548275       0.07886649       0.02202412       0.05431758
V        2.86892496       0.82381234       2.56688412      -0.01683737      -0.16671996       0.01700766
V        2.74833083       2.87721287       0.80353634      -0.00057725       0.02680993      -0.10375760
V        0.76119306       2.52738929       2.80652929      -0.11856165       0.01668768       0.01975534
V        3.63433975       3.54478236       3.51611746      -0.00021046       0.05379368      -0.05753375
V        5.46778825       5.33346907       5.29074860       0.05732030       0.04740455       0.07021079
6
Lattice="-0.366735412 3.332101298 3.904978009 3.972356704 -0.207233116 3.426512495 3.729070151 4.03048306 -0.233305787" Properties=species:S:1:pos:R:3:forces:R:3 batch_id=T generation=8 composition=V6 config_type=C15_aa source_path=V-Cr-Ti-W-Zr/Fixed_Engrads/vcrtiwzr_fin_engrads/job_gen_6-2024-12-23/V/V6_C15_idx_3095 temperature=T date_processed=2025-01-03T17:40:31.813187 structure_type=T structure_index=3095 adversarial_step=T structure_id=8404 energy=-48.87652435302734 stress="0.18885764907049626 0.001825323102355433 -0.013690431950659507 0.001825323102355433 0.17639491572338892 -0.009045469651631558 -0.013690431950659507 -0.009045469651631558 0.17681214188392683" calculation_info="_JSON {\"calculation_id\": 8404, \"calculator\": \"vasp\", \"calculation_source_path\": \"\", \"error\": null, \"status\": \"completed\", \"gpu_count\": null, \"parameters\": {}, \"date_started\": null, \"gpu_memory_mb\": null, \"model_version\": null, \"date_completed\": null, \"runtime_seconds\": null}" parent_id=8404 step=7 variance=0.709128201007843 loss=0.709128201007843 pbc="T T T"
V        0.88316650       0.85907294       0.85297576       0.08368389       0.02368643       0.05772607
V        2.86598512       0.82655666       2.56402039      -0.01654228      -0.18291046       0.01965501
V        2.74553702       2.87458319       0.80625392      -0.00009468       0.02986017      -0.11484279
V        0.76299468       2.52464546       2.80374291      -0.12883548       0.01860061       0.02231419
V        3.63160810       3.54208358       3.51338266       0.00639370       0.06363732      -0.05171160
V        5.46500806       5.33074000       5.28804354       0.05539484       0.04712587       0.06685920
6
Lattice="-0.366735412 3.332101298 3.904978009 3.972356704 -0.207233116 3.426512495 3.729070151 4.03048306 -0.233305787" Properties=species:S:1:pos:R:3:forces:R:3 batch_id=T generation=8 composition=V6 config_type=C15_aa source_path=V-Cr-Ti-W-Zr/Fixed_Engrads/vcrtiwzr_fin_engrads/job_gen_6-2024-12-23/V/V6_C15_idx_3095 temperature=T date_processed=2025-01-03T17:40:31.813187 structure_type=T structure_index=3095 adversarial_step=T structure_id=8404 energy=-48.87454528808594 stress="0.18885764907049626 0.001825323102355433 -0.013690431950659507 0.001825323102355433 0.17639491572338892 -0.009045469651631558 -0.013690431950659507 -0.009045469651631558 0.17681214188392683" calculation_info="_JSON {\"calculation_id\": 8404, \"calculator\": \"vasp\", \"calculation_source_path\": \"\", \"error\": null, \"status\": \"completed\", \"gpu_count\": null, \"parameters\": {}, \"date_started\": null, \"gpu_memory_mb\": null, \"model_version\": null, \"date_completed\": null, \"runtime_seconds\": null}" parent_id=8404 step=8 variance=0.7129595875740051 loss=0.7129595875740051 pbc="T T T"
V        0.88105687       0.85664090       0.85077797       0.08773852       0.02516746       0.06060030
V        2.86337886       0.82897829       2.56148473      -0.01601419      -0.19761762       0.02219788
V        2.74305887       2.87227111       0.80864976       0.00044147       0.03274143      -0.12505248
V        0.76454382       2.52222401       2.80127902      -0.13811238       0.02038457       0.02472549
V        3.62920020       3.53971079       3.51096929       0.01248732       0.07267401      -0.04619098
V        5.46255156       5.32833596       5.28566160       0.05345917       0.04665008       0.06371975
6
Lattice="-0.366735412 3.332101298 3.904978009 3.972356704 -0.207233116 3.426512495 3.729070151 4.03048306 -0.233305787" Properties=species:S:1:pos:R:3:forces:R:3 batch_id=T generation=8 composition=V6 config_type=C15_aa source_path=V-Cr-Ti-W-Zr/Fixed_Engrads/vcrtiwzr_fin_engrads/job_gen_6-2024-12-23/V/V6_C15_idx_3095 temperature=T date_processed=2025-01-03T17:40:31.813187 structure_type=T structure_index=3095 adversarial_step=T structure_id=8404 energy=-48.87266159057617 stress="0.18885764907049626 0.001825323102355433 -0.013690431950659507 0.001825323102355433 0.17639491572338892 -0.009045469651631558 -0.013690431950659507 -0.009045469651631558 0.17681214188392683" calculation_info="_JSON {\"calculation_id\": 8404, \"calculator\": \"vasp\", \"calculation_source_path\": \"\", \"error\": null, \"status\": \"completed\", \"gpu_count\": null, \"parameters\": {}, \"date_started\": null, \"gpu_memory_mb\": null, \"model_version\": null, \"date_completed\": null, \"runtime_seconds\": null}" parent_id=8404 step=9 variance=0.7150483131408691 loss=0.7150483131408691 pbc="T T T"
V        0.87919857       0.85446571       0.84883740       0.09117827       0.02649736       0.06304166
V        2.86105287       0.83112966       2.55922432      -0.01532042      -0.21102436       0.02462794
V        2.74084589       2.87022491       0.81077611       0.00100795       0.03545427      -0.13446841
V        0.76588716       2.52007174       2.79908511      -0.14653024       0.02205551       0.02699501
V        3.62706317       3.53761046       3.50882496       0.01810238       0.08096890      -0.04098577
V        5.46036575       5.32620342       5.28354991       0.05156211       0.04604824       0.06078964
6
Lattice="-0.366735412 3.332101298 3.904978009 3.972356704 -0.207233116 3.426512495 3.729070151 4.03048306 -0.233305787" Properties=species:S:1:pos:R:3:forces:R:3 batch_id=T generation=8 composition=V6 config_type=C15_aa source_path=V-Cr-Ti-W-Zr/Fixed_Engrads/vcrtiwzr_fin_engrads/job_gen_6-2024-12-23/V/V6_C15_idx_3095 temperature=T date_processed=2025-01-03T17:40:31.813187 structure_type=T structure_index=3095 adversarial_step=T structure_id=8404 energy=-48.87087860107422 stress="0.18885764907049626 0.001825323102355433 -0.013690431950659507 0.001825323102355433 0.17639491572338892 -0.009045469651631558 -0.013690431950659507 -0.009045469651631558 0.17681214188392683" calculation_info="_JSON {\"calculation_id\": 8404, \"calculator\": \"vasp\", \"calculation_source_path\": \"\", \"error\": null, \"status\": \"completed\", \"gpu_count\": null, \"parameters\": {}, \"date_started\": null, \"gpu_memory_mb\": null, \"model_version\": null, \"date_completed\": null, \"runtime_seconds\": null}" parent_id=8404 step=10 variance=0.715919554233551 loss=0.715919554233551 pbc="T T T"
V        0.87755292       0.85251084       0.84711514       0.09410621       0.02770079       0.06512119
V        2.85896657       0.83305063       2.55719889      -0.01451237      -0.22327249       0.02693950
V        2.73885844       2.86840497       0.81267280       0.00158903       0.03800170      -0.14315780
V        0.76705724       2.51814840       2.79712117      -0.15417884       0.02361141       0.02912491
V        3.62515692       3.53574233       3.50690972       0.02326890       0.08857973      -0.03609195
V        5.45841008       5.32430170       5.28166806       0.04972703       0.04537885       0.05806417
6
Lattice="-0.366735412 3.332101298 3.904978009 3.972356704 -0.207233116 3.426512495 3.729070151 4.03048306 -0.233305787" Properties=species:S:1:pos:R:3:forces:R:3 batch_id=T generation=8 composition=V6 config_type=C15_aa source_path=V-Cr-Ti-W-Zr/Fixed_Engrads/vcrtiwzr_fin_engrads/job_gen_6-2024-12-23/V/V6_C15_idx_3095 temperature=T date_processed=2025-01-03T17:40:31.813187 structure_type=T structure_index=3095 adversarial_step=T structure_id=8404 energy=-48.86919403076172 stress="0.18885764907049626 0.001825323102355433 -0.013690431950659507 0.001825323102355433 0.17639491572338892 -0.009045469651631558 -0.013690431950659507 -0.009045469651631558 0.17681214188392683" calculation_info="_JSON {\"calculation_id\": 8404, \"calculator\": \"vasp\", \"calculation_source_path\": \"\", \"error\": null, \"status\": \"completed\", \"gpu_count\": null, \"parameters\": {}, \"date_started\": null, \"gpu_memory_mb\": null, \"model_version\": null, \"date_completed\": null, \"runtime_seconds\": null}" parent_id=8404 step=11 variance=0.7159287333488464 loss=0.7159287333488464 pbc="T T T"
V        0.87608953       0.85074621       0.84558033       0.09660143       0.02879118       0.06689409
V        2.85708780       0.83477261       2.55537683      -0.01363315      -0.23447931       0.02913813
V        2.73706571       2.86677983       0.81437056       0.00217831       0.04038859      -0.15117426
V        0.76808000       2.51642233       2.79535571      -0.16114052       0.02506928       0.03112847
V        3.62344969       3.53407427       3.50519211       0.02802265       0.09555815      -0.03151723
V        5.45665308       5.32259870       5.27998401       0.04797129       0.04467200       0.05553076
6
Lattice="-0.366735412 3.332101298 3.904978009 3.972356704 -0.207233116 3.426512495 3.729070151 4.03048306 -0.233305787" Properties=species:S:1:pos:R:3:forces:R:3 batch_id=T generation=8 composition=V6 config_type=C15_aa source_path=V-Cr-Ti-W-Zr/Fixed_Engrads/vcrtiwzr_fin_engrads/job_gen_6-2024-12-23/V/V6_C15_idx_3095 temperature=T date_processed=2025-01-03T17:40:31.813187 structure_type=T structure_index=3095 adversarial_step=T structure_id=8404 energy=-48.86762161254883 stress="0.18885764907049626 0.001825323102355433 -0.013690431950659507 0.001825323102355433 0.17639491572338892 -0.009045469651631558 -0.013690431950659507 -0.009045469651631558 0.17681214188392683" calculation_info="_JSON {\"calculation_id\": 8404, \"calculator\": \"vasp\", \"calculation_source_path\": \"\", \"error\": null, \"status\": \"completed\", \"gpu_count\": null, \"parameters\": {}, \"date_started\": null, \"gpu_memory_mb\": null, \"model_version\": null, \"date_completed\": null, \"runtime_seconds\": null}" parent_id=8404 step=12 variance=0.7153304219245911 loss=0.7153304219245911 pbc="T T T"
V        0.87478414       0.84914768       0.84420840       0.09873122       0.02979681       0.06841197
V        2.85539043       0.83632091       2.55373237      -0.01270288      -0.24474522       0.03121736
V        2.73544194       2.86532409       0.81589443       0.00276533       0.04261915      -0.15856679
V        0.76897014       2.51486790       2.79376313      -0.16746590       0.02642809       0.03299863
V        3.62191622       3.53258082       3.50364690       0.03237013       0.10194421      -0.02725329
V        5.45506870       5.32106835       5.27847221       0.04630205       0.04395698       0.05319206
6
Lattice="-0.366735412 3.332101298 3.904978009 3.972356704 -0.207233116 3.426512495 3.729070151 4.03048306 -0.233305787" Properties=species:S:1:pos:R:3:forces:R:3 batch_id=T generation=8 composition=V6 config_type=C15_aa source_path=V-Cr-Ti-W-Zr/Fixed_Engrads/vcrtiwzr_fin_engrads/job_gen_6-2024-12-23/V/V6_C15_idx_3095 temperature=T date_processed=2025-01-03T17:40:31.813187 structure_type=T structure_index=3095 adversarial_step=T structure_id=8404 energy=-48.86614761352539 stress="0.18885764907049626 0.001825323102355433 -0.013690431950659507 0.001825323102355433 0.17639491572338892 -0.009045469651631558 -0.013690431950659507 -0.009045469651631558 0.17681214188392683" calculation_info="_JSON {\"calculation_id\": 8404, \"calculator\": \"vasp\", \"calculation_source_path\": \"\", \"error\": null, \"status\": \"completed\", \"gpu_count\": null, \"parameters\": {}, \"date_started\": null, \"gpu_memory_mb\": null, \"model_version\": null, \"date_completed\": null, \"runtime_seconds\": null}" parent_id=8404 step=13 variance=0.7143221497535706 loss=0.7143221497535706 pbc="T T T"
V        0.87361687       0.84769587       0.84297930       0.10054366       0.03072662       0.06971046
V        2.85385304       0.83771629       2.55224438      -0.01174857      -0.25414762       0.03318299
V        2.73396625       2.86401717       0.81726486       0.00335009       0.04469261      -0.16537416
V        0.76974642       2.51346430       2.79232264      -0.17321257       0.02770182       0.03474240
V        3.62053559       3.53124089       3.50225344       0.03634387       0.10777786      -0.02329245
V        5.45363611       5.31968940       5.27711144       0.04472357       0.04324868       0.05103078
6
Lattice="-0.366735412 3.332101298 3.904978009 3.972356704 -0.207233116 3.426512495 3.729070151 4.03048306 -0.233305787" Properties=species:S:1:pos:R:3:forces:R:3 batch_id=T generation=8 composition=V6 config_type=C15_aa source_path=V-Cr-Ti-W-Zr/Fixed_Engrads/vcrtiwzr_fin_engrads/job_gen_6-2024-12-23/V/V6_C15_idx_3095 temperature=T date_processed=2025-01-03T17:40:31.813187 structure_type=T structure_index=3095 adversarial_step=T structure_id=8404 energy=-48.86477355957031 stress="0.18885764907049626 0.001825323102355433 -0.013690431950659507 0.001825323102355433 0.17639491572338892 -0.009045469651631558 -0.013690431950659507 -0.009045469651631558 0.17681214188392683" calculation_info="_JSON {\"calculation_id\": 8404, \"calculator\": \"vasp\", \"calculation_source_path\": \"\", \"error\": null, \"status\": \"completed\", \"gpu_count\": null, \"parameters\": {}, \"date_started\": null, \"gpu_memory_mb\": null, \"model_version\": null, \"date_completed\": null, \"runtime_seconds\": null}" parent_id=8404 step=14 variance=0.713050365447998 loss=0.713050365447998 pbc="T T T"
V        0.87257147       0.84637413       0.84187643       0.10207870       0.03158972       0.07081368
V        2.85245779       0.83897639       2.55089510      -0.01078612      -0.26275766       0.03503386
V        2.73262141       2.86284191       0.81849913       0.00392723       0.04661938      -0.17163998
V        0.77041998       2.51219414       2.79101677      -0.17842133       0.02888483       0.03636610
V        3.61929039       3.53003698       3.50099416       0.03996507       0.11310098      -0.01961925
V        5.45233774       5.31844419       5.27588401       0.04323639       0.04256275       0.04904556
6
Lattice="-0.366735412 3.332101298 3.904978009 3.972356704 -0.207233116 3.426512495 3.729070151 4.03048306 -0.233305787" Properties=species:S:1:pos:R:3:forces:R:3 batch_id=T generation=8 composition=V6 config_type=C15_aa source_path=V-Cr-Ti-W-Zr/Fixed_Engrads/vcrtiwzr_fin_engrads/job_gen_6-2024-12-23/V/V6_C15_idx_3095 temperature=T date_processed=2025-01-03T17:40:31.813187 structure_type=T structure_index=3095 adversarial_step=T structure_id=8404 energy=-48.86349868774414 stress="0.18885764907049626 0.001825323102355433 -0.013690431950659507 0.001825323102355433 0.17639491572338892 -0.009045469651631558 -0.013690431950659507 -0.009045469651631558 0.17681214188392683" calculation_info="_JSON {\"calculation_id\": 8404, \"calculator\": \"vasp\", \"calculation_source_path\": \"\", \"error\": null, \"status\": \"completed\", \"gpu_count\": null, \"parameters\": {}, \"date_started\": null, \"gpu_memory_mb\": null, \"model_version\": null, \"date_completed\": null, \"runtime_seconds\": null}" parent_id=8404 step=15 variance=0.7116236090660095 loss=0.7116236090660095 pbc="T T T"
V        0.87163407       0.84516847       0.84088557       0.10337101       0.03239452       0.07175267
V        2.85118910       0.84011586       2.54966949      -0.00982779      -0.27064309       0.03677777
V        2.73139222       2.86178348       0.81961181       0.00449591       0.04840181      -0.17739937
V        0.77100147       2.51104261       2.78983061      -0.18313578       0.02999130       0.03787562
V        3.61816554       3.52895423       3.49985425       0.04325358       0.11795191      -0.01622554
V        5.45115877       5.31731761       5.27477507       0.04184308       0.04190353       0.04721886
6