2
Lattice="35.751385464 0.0 0.0 0.0 21.450831279 0.0 0.0 0.0 20.25911843" Properties=species:S:1:pos:R:3:forces:R:3 generation=7 config_type=dimer source_path=/home/myless/Calc_VASP/MRS/job_gen_7-2025-04-10/Zr/Zr2_dimer_idx_13 formula_string=Zr2 composition_str=Zr2 structure_index=13 date_added_to_db=2025-04-14T00:24:36.505713 structure_id=23866 energy=-4.620419 stress="0.00043502070305581137 0.0 0.0 0.0 1.0797810787778037e-06 0.0 0.0 0.0 1.1109886244072198e-06" calculation_info="_JSON {\"calculation_id\": 23861, \"calculator\": \"vasp\", \"calculation_source_path\": \"/home/myless/Calc_VASP/MRS/job_gen_7-2025-04-10/Zr/Zr2_dimer_idx_13\", \"nbands\": 16, \"parser\": \"ase_outcar\", \"potcar\": \"PAW_PBE Zr_sv 04Jan2005\", \"kpoints\": [1, 2, 2], \"date_run\": \"2025.03.13  02:19:42\", \"vasp_version\": \"vasp.6.4.2 20Jul23\", \"resources_used\": {\"nodes\": 1, \"mpi_ranks\": 4, \"gpus_detected\": true, \"threads_per_rank\": 8}, \"calculation_type\": \"static\"}" pbc="T T T"
Zr       0.00000000       0.00000000       0.00000000       1.88488600       0.00000000       0.00000000
Zr       3.57514000       0.00000000       0.00000000      -1.88488600       0.00000000       0.00000000
2
Lattice="35.751385464 0.0 0.0 0.0 21.450831279 0.0 0.0 0.0 20.25911843" Properties=species:S:1:pos:R:3:forces:R:3 generation=8 config_type=dimer_aa source_path=/home/myless/Calc_VASP/MRS/job_gen_7-2025-04-10/Zr/Zr2_dimer_idx_13 formula_string=Zr2 composition_str=Zr2 structure_index=13 date_added_to_db=2025-04-14T00:24:36.505713 structure_id=23866 energy=-5.658648300170898 stress="0.00043502070305581137 0.0 0.0 0.0 1.0797810787778037e-06 0.0 0.0 0.0 1.1109886244072198e-06" calculation_info="_JSON {\"calculation_id\": 23861, \"calculator\": \"vasp\", \"calculation_source_path\": \"/home/myless/Calc_VASP/MRS/job_gen_7-2025-04-10/Zr/Zr2_dimer_idx_13\", \"nbands\": 16, \"parser\": \"ase_outcar\", \"potcar\": \"PAW_PBE Zr_sv 04Jan2005\", \"kpoints\": [1, 2, 2], \"date_run\": \"2025.03.13  02:19:42\", \"vasp_version\": \"vasp.6.4.2 20Jul23\", \"resources_used\": {\"nodes\": 1, \"mpi_ranks\": 4, \"gpus_detected\": true, \"threads_per_rank\": 8}, \"calculation_type\": \"static\"}" parent_id=23866 step=0 variance=0.6400001049041748 loss=0.6400001049041748 pbc="T T T"
Zr       0.00000000       0.00000000       0.00000000       0.15981324       0.00000000       0.00000000
Zr       3.57514000       0.00000000       0.00000000      -0.15981324       0.00000000       0.00000000
2
Lattice="35.751385464 0.0 0.0 0.0 21.450831279 0.0 0.0 0.0 20.25911843" Properties=species:S:1:pos:R:3:forces:R:3 generation=8 config_type=dimer_aa source_path=/home/myless/Calc_VASP/MRS/job_gen_7-2025-04-10/Zr/Zr2_dimer_idx_13 formula_string=Zr2 composition_str=Zr2 structure_index=13 date_added_to_db=2025-04-14T00:24:36.505713 structure_id=23866 energy=-5.658648300170898 stress="0.00043502070305581137 0.0 0.0 0.0 1.0797810787778037e-06 0.0 0.0 0.0 1.1109886244072198e-06" calculation_info="_JSON {\"calculation_id\": 23861, \"calculator\": \"vasp\", \"calculation_source_path\": \"/home/myless/Calc_VASP/MRS/job_gen_7-2025-04-10/Zr/Zr2_dimer_idx_13\", \"nbands\": 16, \"parser\": \"ase_outcar\", \"potcar\": \"PAW_PBE Zr_sv 04Jan2005\", \"kpoints\": [1, 2, 2], \"date_run\": \"2025.03.13  02:19:42\", \"vasp_version\": \"vasp.6.4.2 20Jul23\", \"resources_used\": {\"nodes\": 1, \"mpi_ranks\": 4, \"gpus_detected\": true, \"threads_per_rank\": 8}, \"calculation_type\": \"static\"}" parent_id=23866 step=1 variance=0.6400001049041748 loss=0.6400001049041748 pbc="T T T"
Zr       0.00000000       0.00000000       0.00000000       0.15981324       0.00000000       0.00000000
Zr       3.57514000       0.00000000       0.00000000      -0.15981324       0.00000000       0.00000000
2
Lattice="35.751385464 0.0 0.0 0.0 21.450831279 0.0 0.0 0.0 20.25911843" Properties=species:S:1:pos:R:3:forces:R:3 generation=8 config_type=dimer_aa source_path=/home/myless/Calc_VASP/MRS/job_gen_7-2025-04-10/Zr/Zr2_dimer_idx_13 formula_string=Zr2 composition_str=Zr2 structure_index=13 date_added_to_db=2025-04-14T00:24:36.505713 structure_id=23866 energy=-5.658648300170898 stress="0.00043502070305581137 0.0 0.0 0.0 1.0797810787778037e-06 0.0 0.0 0.0 1.1109886244072198e-06" calculation_info="_JSON {\"calculation_id\": 23861, \"calculator\": \"vasp\", \"calculation_source_path\": \"/home/myless/Calc_VASP/MRS/job_gen_7-2025-04-10/Zr/Zr2_dimer_idx_13\", \"nbands\": 16, \"parser\": \"ase_outcar\", \"potcar\": \"PAW_PBE Zr_sv 04Jan2005\", \"kpoints\": [1, 2, 2], \"date_run\": \"2025.03.13  02:19:42\", \"vasp_version\": \"vasp.6.4.2 20Jul23\", \"resources_used\": {\"nodes\": 1, \"mpi_ranks\": 4, \"gpus_detected\": true, \"threads_per_rank\": 8}, \"calculation_type\": \"static\"}" parent_id=23866 step=2 variance=0.6400001049041748 loss=0.6400001049041748 pbc="T T T"
Zr       0.00000000       0.00000000       0.00000000       0.15981324       0.00000000       0.00000000
Zr       3.57514000       0.00000000       0.00000000      -0.15981324       0.00000000       0.00000000
2
Lattice="35.751385464 0.0 0.0 0.0 21.450831279 0.0 0.0 0.0 20.25911843" Properties=species:S:1:pos:R:3:forces:R:3 generation=8 config_type=dimer_aa source_path=/home/myless/Calc_VASP/MRS/job_gen_7-2025-04-10/Zr/Zr2_dimer_idx_13 formula_string=Zr2 composition_str=Zr2 structure_index=13 date_added_to_db=2025-04-14T00:24:36.505713 structure_id=23866 energy=-5.658648300170898 stress="0.00043502070305581137 0.0 0.0 0.0 1.0797810787778037e-06 0.0 0.0 0.0 1.1109886244072198e-06" calculation_info="_JSON {\"calculation_id\": 23861, \"calculator\": \"vasp\", \"calculation_source_path\": \"/home/myless/Calc_VASP/MRS/job_gen_7-2025-04-10/Zr/Zr2_dimer_idx_13\", \"nbands\": 16, \"parser\": \"ase_outcar\", \"potcar\": \"PAW_PBE Zr_sv 04Jan2005\", \"kpoints\": [1, 2, 2], \"date_run\": \"2025.03.13  02:19:42\", \"vasp_version\": \"vasp.6.4.2 20Jul23\", \"resources_used\": {\"nodes\": 1, \"mpi_ranks\": 4, \"gpus_detected\": true, \"threads_per_rank\": 8}, \"calculation_type\": \"static\"}" parent_id=23866 step=3 variance=0.6400001049041748 loss=0.6400001049041748 pbc="T T T"
Zr       0.00000000       0.00000000       0.00000000       0.15981324       0.00000000       0.00000000
Zr       3.57514000       0.00000000       0.00000000      -0.15981324       0.00000000       0.00000000
2
Lattice="35.751385464 0.0 0.0 0.0 21.450831279 0.0 0.0 0.0 20.25911843" Properties=species:S:1:pos:R:3:forces:R:3 generation=8 config_type=dimer_aa source_path=/home/myless/Calc_VASP/MRS/job_gen_7-2025-04-10/Zr/Zr2_dimer_idx_13 formula_string=Zr2 composition_str=Zr2 structure_index=13 date_added_to_db=2025-04-14T00:24:36.505713 structure_id=23866 energy=-5.658648300170898 stress="0.00043502070305581137 0.0 0.0 0.0 1.0797810787778037e-06 0.0 0.0 0.0 1.1109886244072198e-06" calculation_info="_JSON {\"calculation_id\": 23861, \"calculator\": \"vasp\", \"calculation_source_path\": \"/home/myless/Calc_VASP/MRS/job_gen_7-2025-04-10/Zr/Zr2_dimer_idx_13\", \"nbands\": 16, \"parser\": \"ase_outcar\", \"potcar\": \"PAW_PBE Zr_sv 04Jan2005\", \"kpoints\": [1, 2, 2], \"date_run\": \"2025.03.13  02:19:42\", \"vasp_version\": \"vasp.6.4.2 20Jul23\", \"resources_used\": {\"nodes\": 1, \"mpi_ranks\": 4, \"gpus_detected\": true, \"threads_per_rank\": 8}, \"calculation_type\": \"static\"}" parent_id=23866 step=4 variance=0.6400001049041748 loss=0.6400001049041748 pbc="T T T"
Zr       0.00000000       0.00000000       0.00000000       0.15981324       0.00000000       0.00000000
Zr       3.57514000       0.00000000       0.00000000      -0.15981324       0.00000000       0.00000000
2
Lattice="35.751385464 0.0 0.0 0.0 21.450831279 0.0 0.0 0.0 20.25911843" Properties=species:S:1:pos:R:3:forces:R:3 generation=8 config_type=dimer_aa source_path=/home/myless/Calc_VASP/MRS/job_gen_7-2025-04-10/Zr/Zr2_dimer_idx_13 formula_string=Zr2 composition_str=Zr2 structure_index=13 date_added_to_db=2025-04-14T00:24:36.505713 structure_id=23866 energy=-5.658648300170898 stress="0.00043502070305581137 0.0 0.0 0.0 1.0797810787778037e-06 0.0 0.0 0.0 1.1109886244072198e-06" calculation_info="_JSON {\"calculation_id\": 23861, \"calculator\": \"vasp\", \"calculation_source_path\": \"/home/myless/Calc_VASP/MRS/job_gen_7-2025-04-10/Zr/Zr2_dimer_idx_13\", \"nbands\": 16, \"parser\": \"ase_outcar\", \"potcar\": \"PAW_PBE Zr_sv 04Jan2005\", \"kpoints\": [1, 2, 2], \"date_run\": \"2025.03.13  02:19:42\", \"vasp_version\": \"vasp.6.4.2 20Jul23\", \"resources_used\": {\"nodes\": 1, \"mpi_ranks\": 4, \"gpus_detected\": true, \"threads_per_rank\": 8}, \"calculation_type\": \"static\"}" parent_id=23866 step=5 variance=0.6400001049041748 loss=0.6400001049041748 pbc="T T T"
Zr       0.00000000       0.00000000       0.00000000       0.15981324       0.00000000       0.00000000
Zr       3.57514000       0.00000000       0.00000000      -0.15981324       0.00000000       0.00000000
2
Lattice="35.751385464 0.0 0.0 0.0 21.450831279 0.0 0.0 0.0 20.25911843" Properties=species:S:1:pos:R:3:forces:R:3 generation=8 config_type=dimer_aa source_path=/home/myless/Calc_VASP/MRS/job_gen_7-2025-04-10/Zr/Zr2_dimer_idx_13 formula_string=Zr2 composition_str=Zr2 structure_index=13 date_added_to_db=2025-04-14T00:24:36.505713 structure_id=23866 energy=-5.658648300170898 stress="0.00043502070305581137 0.0 0.0 0.0 1.0797810787778037e-06 0.0 0.0 0.0 1.1109886244072198e-06" calculation_info="_JSON {\"calculation_id\": 23861, \"calculator\": \"vasp\", \"calculation_source_path\": \"/home/myless/Calc_VASP/MRS/job_gen_7-2025-04-10/Zr/Zr2_dimer_idx_13\", \"nbands\": 16, \"parser\": \"ase_outcar\", \"potcar\": \"PAW_PBE Zr_sv 04Jan2005\", \"kpoints\": [1, 2, 2], \"date_run\": \"2025.03.13  02:19:42\", \"vasp_version\": \"vasp.6.4.2 20Jul23\", \"resources_used\": {\"nodes\": 1, \"mpi_ranks\": 4, \"gpus_detected\": true, \"threads_per_rank\": 8}, \"calculation_type\": \"static\"}" parent_id=23866 step=6 variance=0.6400001049041748 loss=0.6400001049041748 pbc="T T T"
Zr       0.00000000       0.00000000       0.00000000       0.15981324       0.00000000       0.00000000
Zr       3.57514000       0.00000000       0.00000000      -0.15981324       0.00000000       0.00000000
2
Lattice="35.751385464 0.0 0.0 0.0 21.450831279 0.0 0.0 0.0 20.25911843" Properties=species:S:1:pos:R:3:forces:R:3 generation=8 config_type=dimer_aa source_path=/home/myless/Calc_VASP/MRS/job_gen_7-2025-04-10/Zr/Zr2_dimer_idx_13 formula_string=Zr2 composition_str=Zr2 structure_index=13 date_added_to_db=2025-04-14T00:24:36.505713 structure_id=23866 energy=-5.658648300170898 stress="0.00043502070305581137 0.0 0.0 0.0 1.0797810787778037e-06 0.0 0.0 0.0 1.1109886244072198e-06" calculation_info="_JSON {\"calculation_id\": 23861, \"calculator\": \"vasp\", \"calculation_source_path\": \"/home/myless/Calc_VASP/MRS/job_gen_7-2025-04-10/Zr/Zr2_dimer_idx_13\", \"nbands\": 16, \"parser\": \"ase_outcar\", \"potcar\": \"PAW_PBE Zr_sv 04Jan2005\", \"kpoints\": [1, 2, 2], \"date_run\": \"2025.03.13  02:19:42\", \"vasp_version\": \"vasp.6.4.2 20Jul23\", \"resources_used\": {\"nodes\": 1, \"mpi_ranks\": 4, \"gpus_detected\": true, \"threads_per_rank\": 8}, \"calculation_type\": \"static\"}" parent_id=23866 step=7 variance=0.6400001049041748 loss=0.6400001049041748 pbc="T T T"
Zr       0.00000000       0.00000000       0.00000000       0.15981324       0.00000000       0.00000000
Zr       3.57514000       0.00000000       0.00000000      -0.15981324       0.00000000       0.00000000
2
Lattice="35.751385464 0.0 0.0 0.0 21.450831279 0.0 0.0 0.0 20.25911843" Properties=species:S:1:pos:R:3:forces:R:3 generation=8 config_type=dimer_aa source_path=/home/myless/Calc_VASP/MRS/job_gen_7-2025-04-10/Zr/Zr2_dimer_idx_13 formula_string=Zr2 composition_str=Zr2 structure_index=13 date_added_to_db=2025-04-14T00:24:36.505713 structure_id=23866 energy=-5.658648300170898 stress="0.00043502070305581137 0.0 0.0 0.0 1.0797810787778037e-06 0.0 0.0 0.0 1.1109886244072198e-06" calculation_info="_JSON {\"calculation_id\": 23861, \"calculator\": \"vasp\", \"calculation_source_path\": \"/home/myless/Calc_VASP/MRS/job_gen_7-2025-04-10/Zr/Zr2_dimer_idx_13\", \"nbands\": 16, \"parser\": \"ase_outcar\", \"potcar\": \"PAW_PBE Zr_sv 04Jan2005\", \"kpoints\": [1, 2, 2], \"date_run\": \"2025.03.13  02:19:42\", \"vasp_version\": \"vasp.6.4.2 20Jul23\", \"resources_used\": {\"nodes\": 1, \"mpi_ranks\": 4, \"gpus_detected\": true, \"threads_per_rank\": 8}, \"calculation_type\": \"static\"}" parent_id=23866 step=8 variance=0.6400001049041748 loss=0.6400001049041748 pbc="T T T"
Zr       0.00000000       0.00000000       0.00000000       0.15981324       0.00000000       0.00000000
Zr       3.57514000       0.00000000       0.00000000      -0.15981324       0.00000000       0.00000000
2
Lattice="35.751385464 0.0 0.0 0.0 21.450831279 0.0 0.0 0.0 20.25911843" Properties=species:S:1:pos:R:3:forces:R:3 generation=8 config_type=dimer_aa source_path=/home/myless/Calc_VASP/MRS/job_gen_7-2025-04-10/Zr/Zr2_dimer_idx_13 formula_string=Zr2 composition_str=Zr2 structure_index=13 date_added_to_db=2025-04-14T00:24:36.505713 structure_id=23866 energy=-5.658648300170898 stress="0.00043502070305581137 0.0 0.0 0.0 1.0797810787778037e-06 0.0 0.0 0.0 1.1109886244072198e-06" calculation_info="_JSON {\"calculation_id\": 23861, \"calculator\": \"vasp\", \"calculation_source_path\": \"/home/myless/Calc_VASP/MRS/job_gen_7-2025-04-10/Zr/Zr2_dimer_idx_13\", \"nbands\": 16, \"parser\": \"ase_outcar\", \"potcar\": \"PAW_PBE Zr_sv 04Jan2005\", \"kpoints\": [1, 2, 2], \"date_run\": \"2025.03.13  02:19:42\", \"vasp_version\": \"vasp.6.4.2 20Jul23\", \"resources_used\": {\"nodes\": 1, \"mpi_ranks\": 4, \"gpus_detected\": true, \"threads_per_rank\": 8}, \"calculation_type\": \"static\"}" parent_id=23866 step=9 variance=0.6400001049041748 loss=0.6400001049041748 pbc="T T T"
Zr       0.00000000       0.00000000       0.00000000       0.15981324       0.00000000       0.00000000
Zr       3.57514000       0.00000000       0.00000000      -0.15981324       0.00000000       0.00000000
2
Lattice="35.751385464 0.0 0.0 0.0 21.450831279 0.0 0.0 0.0 20.25911843" Properties=species:S:1:pos:R:3:forces:R:3 generation=8 config_type=dimer_aa source_path=/home/myless/Calc_VASP/MRS/job_gen_7-2025-04-10/Zr/Zr2_dimer_idx_13 formula_string=Zr2 composition_str=Zr2 structure_index=13 date_added_to_db=2025-04-14T00:24:36.505713 structure_id=23866 energy=-5.658648300170898 stress="0.00043502070305581137 0.0 0.0 0.0 1.0797810787778037e-06 0.0 0.0 0.0 1.1109886244072198e-06" calculation_info="_JSON {\"calculation_id\": 23861, \"calculator\": \"vasp\", \"calculation_source_path\": \"/home/myless/Calc_VASP/MRS/job_gen_7-2025-04-10/Zr/Zr2_dimer_idx_13\", \"nbands\": 16, \"parser\": \"ase_outcar\", \"potcar\": \"PAW_PBE Zr_sv 04Jan2005\", \"kpoints\": [1, 2, 2], \"date_run\": \"2025.03.13  02:19:42\", \"vasp_version\": \"vasp.6.4.2 20Jul23\", \"resources_used\": {\"nodes\": 1, \"mpi_ranks\": 4, \"gpus_detected\": true, \"threads_per_rank\": 8}, \"calculation_type\": \"static\"}" parent_id=23866 step=10 variance=0.6400001049041748 loss=0.6400001049041748 pbc="T T T"
Zr       0.00000000       0.00000000       0.00000000       0.15981324       0.00000000       0.00000000
Zr       3.57514000       0.00000000       0.00000000      -0.15981324       0.00000000       0.00000000
2
Lattice="35.751385464 0.0 0.0 0.0 21.450831279 0.0 0.0 0.0 20.25911843" Properties=species:S:1:pos:R:3:forces:R:3 generation=8 config_type=dimer_aa source_path=/home/myless/Calc_VASP/MRS/job_gen_7-2025-04-10/Zr/Zr2_dimer_idx_13 formula_string=Zr2 composition_str=Zr2 structure_index=13 date_added_to_db=2025-04-14T00:24:36.505713 structure_id=23866 energy=-5.658648300170898 stress="0.00043502070305581137 0.0 0.0 0.0 1.0797810787778037e-06 0.0 0.0 0.0 1.1109886244072198e-06" calculation_info="_JSON {\"calculation_id\": 23861, \"calculator\": \"vasp\", \"calculation_source_path\": \"/home/myless/Calc_VASP/MRS/job_gen_7-2025-04-10/Zr/Zr2_dimer_idx_13\", \"nbands\": 16, \"parser\": \"ase_outcar\", \"potcar\": \"PAW_PBE Zr_sv 04Jan2005\", \"kpoints\": [1, 2, 2], \"date_run\": \"2025.03.13  02:19:42\", \"vasp_version\": \"vasp.6.4.2 20Jul23\", \"resources_used\": {\"nodes\": 1, \"mpi_ranks\": 4, \"gpus_detected\": true, \"threads_per_rank\": 8}, \"calculation_type\": \"static\"}" parent_id=23866 step=11 variance=0.6400001049041748 loss=0.6400001049041748 pbc="T T T"
Zr       0.00000000       0.00000000       0.00000000       0.15981324       0.00000000       0.00000000
Zr       3.57514000       0.00000000       0.00000000      -0.15981324       0.00000000       0.00000000
2
Lattice="35.751385464 0.0 0.0 0.0 21.450831279 0.0 0.0 0.0 20.25911843" Properties=species:S:1:pos:R:3:forces:R:3 generation=8 config_type=dimer_aa source_path=/home/myless/Calc_VASP/MRS/job_gen_7-2025-04-10/Zr/Zr2_dimer_idx_13 formula_string=Zr2 composition_str=Zr2 structure_index=13 date_added_to_db=2025-04-14T00:24:36.505713 structure_id=23866 energy=-5.658648300170898 stress="0.00043502070305581137 0.0 0.0 0.0 1.0797810787778037e-06 0.0 0.0 0.0 1.1109886244072198e-06" calculation_info="_JSON {\"calculation_id\": 23861, \"calculator\": \"vasp\", \"calculation_source_path\": \"/home/myless/Calc_VASP/MRS/job_gen_7-2025-04-10/Zr/Zr2_dimer_idx_13\", \"nbands\": 16, \"parser\": \"ase_outcar\", \"potcar\": \"PAW_PBE Zr_sv 04Jan2005\", \"kpoints\": [1, 2, 2], \"date_run\": \"2025.03.13  02:19:42\", \"vasp_version\": \"vasp.6.4.2 20Jul23\", \"resources_used\": {\"nodes\": 1, \"mpi_ranks\": 4, \"gpus_detected\": true, \"threads_per_rank\": 8}, \"calculation_type\": \"static\"}" parent_id=23866 step=12 variance=0.6400001049041748 loss=0.6400001049041748 pbc="T T T"
Zr       0.00000000       0.00000000       0.00000000       0.15981324       0.00000000       0.00000000
Zr       3.57514000       0.00000000       0.00000000      -0.15981324       0.00000000       0.00000000
2
Lattice="35.751385464 0.0 0.0 0.0 21.450831279 0.0 0.0 0.0 20.25911843" Properties=species:S:1:pos:R:3:forces:R:3 generation=8 config_type=dimer_aa source_path=/home/myless/Calc_VASP/MRS/job_gen_7-2025-04-10/Zr/Zr2_dimer_idx_13 formula_string=Zr2 composition_str=Zr2 structure_index=13 date_added_to_db=2025-04-14T00:24:36.505713 structure_id=23866 energy=-5.658648300170898 stress="0.00043502070305581137 0.0 0.0 0.0 1.0797810787778037e-06 0.0 0.0 0.0 1.1109886244072198e-06" calculation_info="_JSON {\"calculation_id\": 23861, \"calculator\": \"vasp\", \"calculation_source_path\": \"/home/myless/Calc_VASP/MRS/job_gen_7-2025-04-10/Zr/Zr2_dimer_idx_13\", \"nbands\": 16, \"parser\": \"ase_outcar\", \"potcar\": \"PAW_PBE Zr_sv 04Jan2005\", \"kpoints\": [1, 2, 2], \"date_run\": \"2025.03.13  02:19:42\", \"vasp_version\": \"vasp.6.4.2 20Jul23\", \"resources_used\": {\"nodes\": 1, \"mpi_ranks\": 4, \"gpus_detected\": true, \"threads_per_rank\": 8}, \"calculation_type\": \"static\"}" parent_id=23866 step=13 variance=0.6400001049041748 loss=0.6400001049041748 pbc="T T T"
Zr       0.00000000       0.00000000       0.00000000       0.15981324       0.00000000       0.00000000
Zr       3.57514000       0.00000000       0.00000000      -0.15981324       0.00000000       0.00000000
2
Lattice="35.751385464 0.0 0.0 0.0 21.450831279 0.0 0.0 0.0 20.25911843" Properties=species:S:1:pos:R:3:forces:R:3 generation=8 config_type=dimer_aa source_path=/home/myless/Calc_VASP/MRS/job_gen_7-2025-04-10/Zr/Zr2_dimer_idx_13 formula_string=Zr2 composition_str=Zr2 structure_index=13 date_added_to_db=2025-04-14T00:24:36.505713 structure_id=23866 energy=-5.658648300170898 stress="0.00043502070305581137 0.0 0.0 0.0 1.0797810787778037e-06 0.0 0.0 0.0 1.1109886244072198e-06" calculation_info="_JSON {\"calculation_id\": 23861, \"calculator\": \"vasp\", \"calculation_source_path\": \"/home/myless/Calc_VASP/MRS/job_gen_7-2025-04-10/Zr/Zr2_dimer_idx_13\", \"nbands\": 16, \"parser\": \"ase_outcar\", \"potcar\": \"PAW_PBE Zr_sv 04Jan2005\", \"kpoints\": [1, 2, 2], \"date_run\": \"2025.03.13  02:19:42\", \"vasp_version\": \"vasp.6.4.2 20Jul23\", \"resources_used\": {\"nodes\": 1, \"mpi_ranks\": 4, \"gpus_detected\": true, \"threads_per_rank\": 8}, \"calculation_type\": \"static\"}" parent_id=23866 step=14 variance=0.6400001049041748 loss=0.6400001049041748 pbc="T T T"
Zr       0.00000000       0.00000000       0.00000000       0.15981324       0.00000000       0.00000000
Zr       3.57514000       0.00000000       0.00000000      -0.15981324       0.00000000       0.00000000
2
Lattice="35.751385464 0.0 0.0 0.0 21.450831279 0.0 0.0 0.0 20.25911843" Properties=species:S:1:pos:R:3:forces:R:3 generation=8 config_type=dimer_aa source_path=/home/myless/Calc_VASP/MRS/job_gen_7-2025-04-10/Zr/Zr2_dimer_idx_13 formula_string=Zr2 composition_str=Zr2 structure_index=13 date_added_to_db=2025-04-14T00:24:36.505713 structure_id=23866 energy=-5.658648300170898 stress="0.00043502070305581137 0.0 0.0 0.0 1.0797810787778037e-06 0.0 0.0 0.0 1.1109886244072198e-06" calculation_info="_JSON {\"calculation_id\": 23861, \"calculator\": \"vasp\", \"calculation_source_path\": \"/home/myless/Calc_VASP/MRS/job_gen_7-2025-04-10/Zr/Zr2_dimer_idx_13\", \"nbands\": 16, \"parser\": \"ase_outcar\", \"potcar\": \"PAW_PBE Zr_sv 04Jan2005\", \"kpoints\": [1, 2, 2], \"date_run\": \"2025.03.13  02:19:42\", \"vasp_version\": \"vasp.6.4.2 20Jul23\", \"resources_used\": {\"nodes\": 1, \"mpi_ranks\": 4, \"gpus_detected\": true, \"threads_per_rank\": 8}, \"calculation_type\": \"static\"}" parent_id=23866 step=15 variance=0.6400001049041748 loss=0.6400001049041748 pbc="T T T"
Zr       0.00000000       0.00000000       0.00000000       0.15981324       0.00000000       0.00000000
Zr       3.57514000       0.00000000       0.00000000      -0.15981324       0.00000000       0.00000000
2
Lattice="35.751385464 0.0 0.0 0.0 21.450831279 0.0 0.0 0.0 20.25911843" Properties=species:S:1:pos:R:3:forces:R:3 generation=8 config_type=dimer_aa source_path=/home/myless/Calc_VASP/MRS/job_gen_7-2025-04-10/Zr/Zr2_dimer_idx_13 formula_string=Zr2 composition_str=Zr2 structure_index=13 date_added_to_db=2025-04-14T00:24:36.505713 structure_id=23866 energy=-5.658648300170898 stress="0.00043502070305581137 0.0 0.0 0.0 1.0797810787778037e-06 0.0 0.0 0.0 1.1109886244072198e-06" calculation_info="_JSON {\"calculation_id\": 23861, \"calculator\": \"vasp\", \"calculation_source_path\": \"/home/myless/Calc_VASP/MRS/job_gen_7-2025-04-10/Zr/Zr2_dimer_idx_13\", \"nbands\": 16, \"parser\": \"ase_outcar\", \"potcar\": \"PAW_PBE Zr_sv 04Jan2005\", \"kpoints\": [1, 2, 2], \"date_run\": \"2025.03.13  02:19:42\", \"vasp_version\": \"vasp.6.4.2 20Jul23\", \"resources_used\": {\"nodes\": 1, \"mpi_ranks\": 4, \"gpus_detected\": true, \"threads_per_rank\": 8}, \"calculation_type\": \"static\"}" parent_id=23866 step=16 variance=0.6400001049041748 loss=0.6400001049041748 pbc="T T T"
Zr       0.00000000       0.00000000       0.00000000       0.15981324       0.00000000       0.00000000
Zr       3.57514000       0.00000000       0.00000000      -0.15981324       0.00000000       0.00000000
2
Lattice="35.751385464 0.0 0.0 0.0 21.450831279 0.0 0.0 0.0 20.25911843" Properties=species:S:1:pos:R:3:forces:R:3 generation=8 config_type=dimer_aa source_path=/home/myless/Calc_VASP/MRS/job_gen_7-2025-04-10/Zr/Zr2_dimer_idx_13 formula_string=Zr2 composition_str=Zr2 structure_index=13 date_added_to_db=2025-04-14T00:24:36.505713 structure_id=23866 energy=-5.658648300170898 stress="0.00043502070305581137 0.0 0.0 0.0 1.0797810787778037e-06 0.0 0.0 0.0 1.1109886244072198e-06" calculation_info="_JSON {\"calculation_id\": 23861, \"calculator\": \"vasp\", \"calculation_source_path\": \"/home/myless/Calc_VASP/MRS/job_gen_7-2025-04-10/Zr/Zr2_dimer_idx_13\", \"nbands\": 16, \"parser\": \"ase_outcar\", \"potcar\": \"PAW_PBE Zr_sv 04Jan2005\", \"kpoints\": [1, 2, 2], \"date_run\": \"2025.03.13  02:19:42\", \"vasp_version\": \"vasp.6.4.2 20Jul23\", \"resources_used\": {\"nodes\": 1, \"mpi_ranks\": 4, \"gpus_detected\": true, \"threads_per_rank\": 8}, \"calculation_type\": \"static\"}" parent_id=23866 step=17 variance=0.6400001049041748 loss=0.6400001049041748 pbc="T T T"
Zr       0.00000000       0.00000000       0.00000000       0.15981324       0.00000000       0.00000000
Zr       3.57514000       0.00000000       0.00000000      -0.15981324       0.00000000       0.00000000
2
Lattice="35.751385464 0.0 0.0 0.0 21.450831279 0.0 0.0 0.0 20.25911843" Properties=species:S:1:pos:R:3:forces:R:3 generation=8 config_type=dimer_aa source_path=/home/myless/Calc_VASP/MRS/job_gen_7-2025-04-10/Zr/Zr2_dimer_idx_13 formula_string=Zr2 composition_str=Zr2 structure_index=13 date_added_to_db=2025-04-14T00:24:36.505713 structure_id=23866 energy=-5.658648300170898 stress="0.00043502070305581137 0.0 0.0 0.0 1.0797810787778037e-06 0.0 0.0 0.0 1.1109886244072198e-06" calculation_info="_JSON {\"calculation_id\": 23861, \"calculator\": \"vasp\", \"calculation_source_path\": \"/home/myless/Calc_VASP/MRS/job_gen_7-2025-04-10/Zr/Zr2_dimer_idx_13\", \"nbands\": 16, \"parser\": \"ase_outcar\", \"potcar\": \"PAW_PBE Zr_sv 04Jan2005\", \"kpoints\": [1, 2, 2], \"date_run\": \"2025.03.13  02:19:42\", \"vasp_version\": \"vasp.6.4.2 20Jul23\", \"resources_used\": {\"nodes\": 1, \"mpi_ranks\": 4, \"gpus_detected\": true, \"threads_per_rank\": 8}, \"calculation_type\": \"static\"}" parent_id=23866 step=18 variance=0.6400001049041748 loss=0.6400001049041748 pbc="T T T"
Zr       0.00000000       0.00000000       0.00000000       0.15981324       0.00000000       0.00000000
Zr       3.57514000       0.00000000       0.00000000      -0.15981324       0.00000000       0.00000000
2
Lattice="35.751385464 0.0 0.0 0.0 21.450831279 0.0 0.0 0.0 20.25911843" Properties=species:S:1:pos:R:3:forces:R:3 generation=8 config_type=dimer_aa source_path=/home/myless/Calc_VASP/MRS/job_gen_7-2025-04-10/Zr/Zr2_dimer_idx_13 formula_string=Zr2 composition_str=Zr2 structure_index=13 date_added_to_db=2025-04-14T00:24:36.505713 structure_id=23866 energy=-5.658648300170898 stress="0.00043502070305581137 0.0 0.0 0.0 1.0797810787778037e-06 0.0 0.0 0.0 1.1109886244072198e-06" calculation_info="_JSON {\"calculation_id\": 23861, \"calculator\": \"vasp\", \"calculation_source_path\": \"/home/myless/Calc_VASP/MRS/job_gen_7-2025-04-10/Zr/Zr2_dimer_idx_13\", \"nbands\": 16, \"parser\": \"ase_outcar\", \"potcar\": \"PAW_PBE Zr_sv 04Jan2005\", \"kpoints\": [1, 2, 2], \"date_run\": \"2025.03.13  02:19:42\", \"vasp_version\": \"vasp.6.4.2 20Jul23\", \"resources_used\": {\"nodes\": 1, \"mpi_ranks\": 4, \"gpus_detected\": true, \"threads_per_rank\": 8}, \"calculation_type\": \"static\"}" parent_id=23866 step=19 variance=0.6400001049041748 loss=0.6400001049041748 pbc="T T T"
Zr       0.00000000       0.00000000       0.00000000       0.15981324       0.00000000       0.00000000
Zr       3.57514000       0.00000000       0.00000000      -0.15981324       0.00000000       0.00000000
2
Lattice="35.751385464 0.0 0.0 0.0 21.450831279 0.0 0.0 0.0 20.25911843" Properties=species:S:1:pos:R:3:forces:R:3 generation=8 config_type=dimer_aa source_path=/home/myless/Calc_VASP/MRS/job_gen_7-2025-04-10/Zr/Zr2_dimer_idx_13 formula_string=Zr2 composition_str=Zr2 structure_index=13 date_added_to_db=2025-04-14T00:24:36.505713 structure_id=23866 energy=-5.658648300170898 stress="0.00043502070305581137 0.0 0.0 0.0 1.0797810787778037e-06 0.0 0.0 0.0 1.1109886244072198e-06" calculation_info="_JSON {\"calculation_id\": 23861, \"calculator\": \"vasp\", \"calculation_source_path\": \"/home/myless/Calc_VASP/MRS/job_gen_7-2025-04-10/Zr/Zr2_dimer_idx_13\", \"nbands\": 16, \"parser\": \"ase_outcar\", \"potcar\": \"PAW_PBE Zr_sv 04Jan2005\", \"kpoints\": [1, 2, 2], \"date_run\": \"2025.03.13  02:19:42\", \"vasp_version\": \"vasp.6.4.2 20Jul23\", \"resources_used\": {\"nodes\": 1, \"mpi_ranks\": 4, \"gpus_detected\": true, \"threads_per_rank\": 8}, \"calculation_type\": \"static\"}" parent_id=23866 step=20 variance=0.6400001049041748 loss=0.6400001049041748 pbc="T T T"
Zr       0.00000000       0.00000000       0.00000000       0.15981324       0.00000000       0.00000000
Zr       3.57514000       0.00000000       0.00000000      -0.15981324       0.00000000       0.00000000
2
Lattice="35.751385464 0.0 0.0 0.0 21.450831279 0.0 0.0 0.0 20.25911843" Properties=species:S:1:pos:R:3:forces:R:3 generation=8 config_type=dimer_aa source_path=/home/myless/Calc_VASP/MRS/job_gen_7-2025-04-10/Zr/Zr2_dimer_idx_13 formula_string=Zr2 composition_str=Zr2 structure_index=13 date_added_to_db=2025-04-14T00:24:36.505713 structure_id=23866 energy=-5.6527105331420895 stress="0.00043502070305581137 0.0 0.0 0.0 1.0797810787778037e-06 0.0 0.0 0.0 1.1109886244072198e-06" calculation_info="_JSON {\"calculation_id\": 23861, \"calculator\": \"vasp\", \"calculation_source_path\": \"/home/myless/Calc_VASP/MRS/job_gen_7-2025-04-10/Zr/Zr2_dimer_idx_13\", \"nbands\": 16, \"parser\": \"ase_outcar\", \"potcar\": \"PAW_PBE Zr_sv 04Jan2005\", \"kpoints\": [1, 2, 2], \"date_run\": \"2025.03.13  02:19:42\", \"vasp_version\": \"vasp.6.4.2 20Jul23\", \"resources_used\": {\"nodes\": 1, \"mpi_ranks\": 4, \"gpus_detected\": true, \"threads_per_rank\": 8}, \"calculation_type\": \"static\"}" parent_id=23866 step=21 variance=0.64000004529953 loss=0.64000004529953 pbc="T T T"
Zr       0.06301658      -0.06892255      -0.06258363       0.21281855       0.00391035       0.00165236
Zr       3.66954519      -0.00265572      -0.03458189      -0.21281855      -0.00391035      -0.00165236
2