2
Lattice="2.337073889 -0.60319758 0.099952302 -0.321381027 2.50999995 0.361063057 0.021271175 -0.299915821 2.263011147" Properties=species:S:1:pos:R:3:forces:R:3 generation=7 config_type=bcc_distorted source_path=/home/myless/Calc_VASP/MRS/job_gen_7-2025-04-10/Cr/Cr2_bcc_distorted_idx_2545 formula_string=Cr2 composition_str=Cr2 structure_index=2545 date_added_to_db=2025-04-14T00:14:09.727082 structure_id=22461 energy=-6.2893324 stress="-3.223455861827041 -1.501488649109615 0.20158877979303494 -1.501488649109615 -3.201595032287217 0.4392049171511666 0.20158877979303494 0.4392049171511666 -3.797401223444441" calculation_info="_JSON {\"calculation_id\": 22456, \"calculator\": \"vasp\", \"calculation_source_path\": \"/home/myless/Calc_VASP/MRS/job_gen_7-2025-04-10/Cr/Cr2_bcc_distorted_idx_2545\", \"nbands\": 64, \"parser\": \"ase_outcar\", \"potcar\": \"PAW_PBE Cr_pv 02Aug2007\", \"kpoints\": [20, 19, 21], \"date_run\": \"2025.03.19  01:19:40\", \"vasp_version\": \"vasp.6.4.2 20Jul23\", \"resources_used\": {\"nodes\": 1, \"mpi_ranks\": 64, \"gpus_detected\": false, \"threads_per_rank\": 2}, \"calculation_type\": \"static\"}" pbc="T T T"
Cr       0.00000000       0.00000000       0.00000000       0.00000000       0.00000000       0.00000000
Cr       1.01848000       0.80344000       1.36201000       0.00000000       0.00000000       0.00000000
2
Lattice="2.337073889 -0.60319758 0.099952302 -0.321381027 2.50999995 0.361063057 0.021271175 -0.299915821 2.263011147" Properties=species:S:1:pos:R:3:forces:R:3 generation=8 config_type=bcc_distorted_aa source_path=/home/myless/Calc_VASP/MRS/job_gen_7-2025-04-10/Cr/Cr2_bcc_distorted_idx_2545 formula_string=Cr2 composition_str=Cr2 structure_index=2545 date_added_to_db=2025-04-14T00:14:09.727082 structure_id=22461 energy=-6.072849082946777 stress="-3.223455861827041 -1.501488649109615 0.20158877979303494 -1.501488649109615 -3.201595032287217 0.4392049171511666 0.20158877979303494 0.4392049171511666 -3.797401223444441" calculation_info="_JSON {\"calculation_id\": 22456, \"calculator\": \"vasp\", \"calculation_source_path\": \"/home/myless/Calc_VASP/MRS/job_gen_7-2025-04-10/Cr/Cr2_bcc_distorted_idx_2545\", \"nbands\": 64, \"parser\": \"ase_outcar\", \"potcar\": \"PAW_PBE Cr_pv 02Aug2007\", \"kpoints\": [20, 19, 21], \"date_run\": \"2025.03.19  01:19:40\", \"vasp_version\": \"vasp.6.4.2 20Jul23\", \"resources_used\": {\"nodes\": 1, \"mpi_ranks\": 64, \"gpus_detected\": false, \"threads_per_rank\": 2}, \"calculation_type\": \"static\"}" parent_id=22461 step=0 variance=0.3679921627044678 loss=0.3679921627044678 pbc="T T T"
Cr       0.00000000       0.00000000       0.00000000      -0.00007408      -0.00005074      -0.00006373
Cr       1.01848000       0.80344000       1.36201000       0.00007382       0.00005083       0.00006335
2
Lattice="2.337073889 -0.60319758 0.099952302 -0.321381027 2.50999995 0.361063057 0.021271175 -0.299915821 2.263011147" Properties=species:S:1:pos:R:3:forces:R:3 generation=8 config_type=bcc_distorted_aa source_path=/home/myless/Calc_VASP/MRS/job_gen_7-2025-04-10/Cr/Cr2_bcc_distorted_idx_2545 formula_string=Cr2 composition_str=Cr2 structure_index=2545 date_added_to_db=2025-04-14T00:14:09.727082 structure_id=22461 energy=-6.072848987579346 stress="-3.223455861827041 -1.501488649109615 0.20158877979303494 -1.501488649109615 -3.201595032287217 0.4392049171511666 0.20158877979303494 0.4392049171511666 -3.797401223444441" calculation_info="_JSON {\"calculation_id\": 22456, \"calculator\": \"vasp\", \"calculation_source_path\": \"/home/myless/Calc_VASP/MRS/job_gen_7-2025-04-10/Cr/Cr2_bcc_distorted_idx_2545\", \"nbands\": 64, \"parser\": \"ase_outcar\", \"potcar\": \"PAW_PBE Cr_pv 02Aug2007\", \"kpoints\": [20, 19, 21], \"date_run\": \"2025.03.19  01:19:40\", \"vasp_version\": \"vasp.6.4.2 20Jul23\", \"resources_used\": {\"nodes\": 1, \"mpi_ranks\": 64, \"gpus_detected\": false, \"threads_per_rank\": 2}, \"calculation_type\": \"static\"}" parent_id=22461 step=1 variance=0.35598045587539673 loss=0.35598045587539673 pbc="T T T"
Cr       0.01000000       0.01000000      -0.01000000      -0.00007709      -0.00005230      -0.00006046
Cr       1.02848000       0.81344000       1.35201000       0.00007704       0.00005226       0.00006149
2
Lattice="2.337073889 -0.60319758 0.099952302 -0.321381027 2.50999995 0.361063057 0.021271175 -0.299915821 2.263011147" Properties=species:S:1:pos:R:3:forces:R:3 generation=8 config_type=bcc_distorted_aa source_path=/home/myless/Calc_VASP/MRS/job_gen_7-2025-04-10/Cr/Cr2_bcc_distorted_idx_2545 formula_string=Cr2 composition_str=Cr2 structure_index=2545 date_added_to_db=2025-04-14T00:14:09.727082 structure_id=22461 energy=-6.072847652435303 stress="-3.223455861827041 -1.501488649109615 0.20158877979303494 -1.501488649109615 -3.201595032287217 0.4392049171511666 0.20158877979303494 0.4392049171511666 -3.797401223444441" calculation_info="_JSON {\"calculation_id\": 22456, \"calculator\": \"vasp\", \"calculation_source_path\": \"/home/myless/Calc_VASP/MRS/job_gen_7-2025-04-10/Cr/Cr2_bcc_distorted_idx_2545\", \"nbands\": 64, \"parser\": \"ase_outcar\", \"potcar\": \"PAW_PBE Cr_pv 02Aug2007\", \"kpoints\": [20, 19, 21], \"date_run\": \"2025.03.19  01:19:40\", \"vasp_version\": \"vasp.6.4.2 20Jul23\", \"resources_used\": {\"nodes\": 1, \"mpi_ranks\": 64, \"gpus_detected\": false, \"threads_per_rank\": 2}, \"calculation_type\": \"static\"}" parent_id=22461 step=2 variance=0.16795022785663605 loss=0.16795022785663605 pbc="T T T"
Cr       0.02001351       0.02001217      -0.01996211      -0.00010831      -0.00010100       0.00000559
Cr       1.03849175       0.82345121       1.34205109       0.00010834       0.00010109      -0.00000610
2
Lattice="2.337073889 -0.60319758 0.099952302 -0.321381027 2.50999995 0.361063057 0.021271175 -0.299915821 2.263011147" Properties=species:S:1:pos:R:3:forces:R:3 generation=8 config_type=bcc_distorted_aa source_path=/home/myless/Calc_VASP/MRS/job_gen_7-2025-04-10/Cr/Cr2_bcc_distorted_idx_2545 formula_string=Cr2 composition_str=Cr2 structure_index=2545 date_added_to_db=2025-04-14T00:14:09.727082 structure_id=22461 energy=-6.072726154327393 stress="-3.223455861827041 -1.501488649109615 0.20158877979303494 -1.501488649109615 -3.201595032287217 0.4392049171511666 0.20158877979303494 0.4392049171511666 -3.797401223444441" calculation_info="_JSON {\"calculation_id\": 22456, \"calculator\": \"vasp\", \"calculation_source_path\": \"/home/myless/Calc_VASP/MRS/job_gen_7-2025-04-10/Cr/Cr2_bcc_distorted_idx_2545\", \"nbands\": 64, \"parser\": \"ase_outcar\", \"potcar\": \"PAW_PBE Cr_pv 02Aug2007\", \"kpoints\": [20, 19, 21], \"date_run\": \"2025.03.19  01:19:40\", \"vasp_version\": \"vasp.6.4.2 20Jul23\", \"resources_used\": {\"nodes\": 1, \"mpi_ranks\": 64, \"gpus_detected\": false, \"threads_per_rank\": 2}, \"calculation_type\": \"static\"}" parent_id=22461 step=3 variance=0.27209940552711487 loss=0.27209940552711487 pbc="T T T"
Cr       0.02927483       0.02973746      -0.02120051      -0.00349867       0.01137074      -0.06948688
Cr       1.04806239       0.83314854       1.33729337       0.00349843      -0.01137072       0.06948628
2
Lattice="2.337073889 -0.60319758 0.099952302 -0.321381027 2.50999995 0.361063057 0.021271175 -0.299915821 2.263011147" Properties=species:S:1:pos:R:3:forces:R:3 generation=8 config_type=bcc_distorted_aa source_path=/home/myless/Calc_VASP/MRS/job_gen_7-2025-04-10/Cr/Cr2_bcc_distorted_idx_2545 formula_string=Cr2 composition_str=Cr2 structure_index=2545 date_added_to_db=2025-04-14T00:14:09.727082 structure_id=22461 energy=-6.07245569229126 stress="-3.223455861827041 -1.501488649109615 0.20158877979303494 -1.501488649109615 -3.201595032287217 0.4392049171511666 0.20158877979303494 0.4392049171511666 -3.797401223444441" calculation_info="_JSON {\"calculation_id\": 22456, \"calculator\": \"vasp\", \"calculation_source_path\": \"/home/myless/Calc_VASP/MRS/job_gen_7-2025-04-10/Cr/Cr2_bcc_distorted_idx_2545\", \"nbands\": 64, \"parser\": \"ase_outcar\", \"potcar\": \"PAW_PBE Cr_pv 02Aug2007\", \"kpoints\": [20, 19, 21], \"date_run\": \"2025.03.19  01:19:40\", \"vasp_version\": \"vasp.6.4.2 20Jul23\", \"resources_used\": {\"nodes\": 1, \"mpi_ranks\": 64, \"gpus_detected\": false, \"threads_per_rank\": 2}, \"calculation_type\": \"static\"}" parent_id=22461 step=4 variance=0.29808056354522705 loss=0.29808056354522705 pbc="T T T"
Cr       0.03683414       0.03787480      -0.02222571      -0.01127552       0.01818043      -0.12535246
Cr       1.05591909       0.84090967       1.33339952       0.01127542      -0.01818022       0.12535262
2
Lattice="2.337073889 -0.60319758 0.099952302 -0.321381027 2.50999995 0.361063057 0.021271175 -0.299915821 2.263011147" Properties=species:S:1:pos:R:3:forces:R:3 generation=8 config_type=bcc_distorted_aa source_path=/home/myless/Calc_VASP/MRS/job_gen_7-2025-04-10/Cr/Cr2_bcc_distorted_idx_2545 formula_string=Cr2 composition_str=Cr2 structure_index=2545 date_added_to_db=2025-04-14T00:14:09.727082 structure_id=22461 energy=-6.072115230560303 stress="-3.223455861827041 -1.501488649109615 0.20158877979303494 -1.501488649109615 -3.201595032287217 0.4392049171511666 0.20158877979303494 0.4392049171511666 -3.797401223444441" calculation_info="_JSON {\"calculation_id\": 22456, \"calculator\": \"vasp\", \"calculation_source_path\": \"/home/myless/Calc_VASP/MRS/job_gen_7-2025-04-10/Cr/Cr2_bcc_distorted_idx_2545\", \"nbands\": 64, \"parser\": \"ase_outcar\", \"potcar\": \"PAW_PBE Cr_pv 02Aug2007\", \"kpoints\": [20, 19, 21], \"date_run\": \"2025.03.19  01:19:40\", \"vasp_version\": \"vasp.6.4.2 20Jul23\", \"resources_used\": {\"nodes\": 1, \"mpi_ranks\": 64, \"gpus_detected\": false, \"threads_per_rank\": 2}, \"calculation_type\": \"static\"}" parent_id=22461 step=5 variance=0.31297820806503296 loss=0.31297820806503296 pbc="T T T"
Cr       0.04322390       0.04483091      -0.02310600      -0.02017595       0.02247881      -0.17164096
Cr       1.06256040       0.84739342       1.33012506       0.02017574      -0.02247876       0.17164013
2
Lattice="2.337073889 -0.60319758 0.099952302 -0.321381027 2.50999995 0.361063057 0.021271175 -0.299915821 2.263011147" Properties=species:S:1:pos:R:3:forces:R:3 generation=8 config_type=bcc_distorted_aa source_path=/home/myless/Calc_VASP/MRS/job_gen_7-2025-04-10/Cr/Cr2_bcc_distorted_idx_2545 formula_string=Cr2 composition_str=Cr2 structure_index=2545 date_added_to_db=2025-04-14T00:14:09.727082 structure_id=22461 energy=-6.0717418670654295 stress="-3.223455861827041 -1.501488649109615 0.20158877979303494 -1.501488649109615 -3.201595032287217 0.4392049171511666 0.20158877979303494 0.4392049171511666 -3.797401223444441" calculation_info="_JSON {\"calculation_id\": 22456, \"calculator\": \"vasp\", \"calculation_source_path\": \"/home/myless/Calc_VASP/MRS/job_gen_7-2025-04-10/Cr/Cr2_bcc_distorted_idx_2545\", \"nbands\": 64, \"parser\": \"ase_outcar\", \"potcar\": \"PAW_PBE Cr_pv 02Aug2007\", \"kpoints\": [20, 19, 21], \"date_run\": \"2025.03.19  01:19:40\", \"vasp_version\": \"vasp.6.4.2 20Jul23\", \"resources_used\": {\"nodes\": 1, \"mpi_ranks\": 64, \"gpus_detected\": false, \"threads_per_rank\": 2}, \"calculation_type\": \"static\"}" parent_id=22461 step=6 variance=0.32335513830184937 loss=0.32335513830184937 pbc="T T T"
Cr       0.04873354       0.05087638      -0.02387874      -0.02935427       0.02515697      -0.21078160
Cr       1.06828250       0.85293343       1.32731667       0.02935419      -0.02515695       0.21078177
2
Lattice="2.337073889 -0.60319758 0.099952302 -0.321381027 2.50999995 0.361063057 0.021271175 -0.299915821 2.263011147" Properties=species:S:1:pos:R:3:forces:R:3 generation=8 config_type=bcc_distorted_aa source_path=/home/myless/Calc_VASP/MRS/job_gen_7-2025-04-10/Cr/Cr2_bcc_distorted_idx_2545 formula_string=Cr2 composition_str=Cr2 structure_index=2545 date_added_to_db=2025-04-14T00:14:09.727082 structure_id=22461 energy=-6.071359634399414 stress="-3.223455861827041 -1.501488649109615 0.20158877979303494 -1.501488649109615 -3.201595032287217 0.4392049171511666 0.20158877979303494 0.4392049171511666 -3.797401223444441" calculation_info="_JSON {\"calculation_id\": 22456, \"calculator\": \"vasp\", \"calculation_source_path\": \"/home/myless/Calc_VASP/MRS/job_gen_7-2025-04-10/Cr/Cr2_bcc_distorted_idx_2545\", \"nbands\": 64, \"parser\": \"ase_outcar\", \"potcar\": \"PAW_PBE Cr_pv 02Aug2007\", \"kpoints\": [20, 19, 21], \"date_run\": \"2025.03.19  01:19:40\", \"vasp_version\": \"vasp.6.4.2 20Jul23\", \"resources_used\": {\"nodes\": 1, \"mpi_ranks\": 64, \"gpus_detected\": false, \"threads_per_rank\": 2}, \"calculation_type\": \"static\"}" parent_id=22461 step=7 variance=0.3312925100326538 loss=0.3312925100326538 pbc="T T T"
Cr       0.05354784       0.05619217      -0.02456715      -0.03849281       0.02669617      -0.24431510
Cr       1.07327640       0.85773580       1.32487612       0.03849279      -0.02669620       0.24431634
2
Lattice="2.337073889 -0.60319758 0.099952302 -0.321381027 2.50999995 0.361063057 0.021271175 -0.299915821 2.263011147" Properties=species:S:1:pos:R:3:forces:R:3 generation=8 config_type=bcc_distorted_aa source_path=/home/myless/Calc_VASP/MRS/job_gen_7-2025-04-10/Cr/Cr2_bcc_distorted_idx_2545 formula_string=Cr2 composition_str=Cr2 structure_index=2545 date_added_to_db=2025-04-14T00:14:09.727082 structure_id=22461 energy=-6.070988941192627 stress="-3.223455861827041 -1.501488649109615 0.20158877979303494 -1.501488649109615 -3.201595032287217 0.4392049171511666 0.20158877979303494 0.4392049171511666 -3.797401223444441" calculation_info="_JSON {\"calculation_id\": 22456, \"calculator\": \"vasp\", \"calculation_source_path\": \"/home/myless/Calc_VASP/MRS/job_gen_7-2025-04-10/Cr/Cr2_bcc_distorted_idx_2545\", \"nbands\": 64, \"parser\": \"ase_outcar\", \"potcar\": \"PAW_PBE Cr_pv 02Aug2007\", \"kpoints\": [20, 19, 21], \"date_run\": \"2025.03.19  01:19:40\", \"vasp_version\": \"vasp.6.4.2 20Jul23\", \"resources_used\": {\"nodes\": 1, \"mpi_ranks\": 64, \"gpus_detected\": false, \"threads_per_rank\": 2}, \"calculation_type\": \"static\"}" parent_id=22461 step=8 variance=0.3377888798713684 loss=0.3377888798713684 pbc="T T T"
Cr       0.05779450       0.06090785      -0.02518703      -0.04744965       0.02738764      -0.27327412
Cr       1.07767581       0.86194100       1.32273638       0.04744980      -0.02738736       0.27327436
2
Lattice="2.337073889 -0.60319758 0.099952302 -0.321381027 2.50999995 0.361063057 0.021271175 -0.299915821 2.263011147" Properties=species:S:1:pos:R:3:forces:R:3 generation=8 config_type=bcc_distorted_aa source_path=/home/myless/Calc_VASP/MRS/job_gen_7-2025-04-10/Cr/Cr2_bcc_distorted_idx_2545 formula_string=Cr2 composition_str=Cr2 structure_index=2545 date_added_to_db=2025-04-14T00:14:09.727082 structure_id=22461 energy=-6.070626735687256 stress="-3.223455861827041 -1.501488649109615 0.20158877979303494 -1.501488649109615 -3.201595032287217 0.4392049171511666 0.20158877979303494 0.4392049171511666 -3.797401223444441" calculation_info="_JSON {\"calculation_id\": 22456, \"calculator\": \"vasp\", \"calculation_source_path\": \"/home/myless/Calc_VASP/MRS/job_gen_7-2025-04-10/Cr/Cr2_bcc_distorted_idx_2545\", \"nbands\": 64, \"parser\": \"ase_outcar\", \"potcar\": \"PAW_PBE Cr_pv 02Aug2007\", \"kpoints\": [20, 19, 21], \"date_run\": \"2025.03.19  01:19:40\", \"vasp_version\": \"vasp.6.4.2 20Jul23\", \"resources_used\": {\"nodes\": 1, \"mpi_ranks\": 64, \"gpus_detected\": false, \"threads_per_rank\": 2}, \"calculation_type\": \"static\"}" parent_id=22461 step=9 variance=0.34336841106414795 loss=0.34336841106414795 pbc="T T T"
Cr       0.06156737       0.06511904      -0.02574906      -0.05616678       0.02741987      -0.29841968
Cr       1.08157871       0.86565055       1.32084818       0.05616691      -0.02741947       0.29842070
2
Lattice="2.337073889 -0.60319758 0.099952302 -0.321381027 2.50999995 0.361063057 0.021271175 -0.299915821 2.263011147" Properties=species:S:1:pos:R:3:forces:R:3 generation=8 config_type=bcc_distorted_aa source_path=/home/myless/Calc_VASP/MRS/job_gen_7-2025-04-10/Cr/Cr2_bcc_distorted_idx_2545 formula_string=Cr2 composition_str=Cr2 structure_index=2545 date_added_to_db=2025-04-14T00:14:09.727082 structure_id=22461 energy=-6.070289897918701 stress="-3.223455861827041 -1.501488649109615 0.20158877979303494 -1.501488649109615 -3.201595032287217 0.4392049171511666 0.20158877979303494 0.4392049171511666 -3.797401223444441" calculation_info="_JSON {\"calculation_id\": 22456, \"calculator\": \"vasp\", \"calculation_source_path\": \"/home/myless/Calc_VASP/MRS/job_gen_7-2025-04-10/Cr/Cr2_bcc_distorted_idx_2545\", \"nbands\": 64, \"parser\": \"ase_outcar\", \"potcar\": \"PAW_PBE Cr_pv 02Aug2007\", \"kpoints\": [20, 19, 21], \"date_run\": \"2025.03.19  01:19:40\", \"vasp_version\": \"vasp.6.4.2 20Jul23\", \"resources_used\": {\"nodes\": 1, \"mpi_ranks\": 64, \"gpus_detected\": false, \"threads_per_rank\": 2}, \"calculation_type\": \"static\"}" parent_id=22461 step=10 variance=0.3482803702354431 loss=0.3482803702354431 pbc="T T T"
Cr       0.06493695       0.06889894      -0.02626269      -0.06460362       0.02694548      -0.32033437
Cr       1.08505963       0.86894065       1.31917354       0.06460357      -0.02694533       0.32033381
2
Lattice="2.337073889 -0.60319758 0.099952302 -0.321381027 2.50999995 0.361063057 0.021271175 -0.299915821 2.263011147" Properties=species:S:1:pos:R:3:forces:R:3 generation=8 config_type=bcc_distorted_aa source_path=/home/myless/Calc_VASP/MRS/job_gen_7-2025-04-10/Cr/Cr2_bcc_distorted_idx_2545 formula_string=Cr2 composition_str=Cr2 structure_index=2545 date_added_to_db=2025-04-14T00:14:09.727082 structure_id=22461 energy=-6.069973945617676 stress="-3.223455861827041 -1.501488649109615 0.20158877979303494 -1.501488649109615 -3.201595032287217 0.4392049171511666 0.20158877979303494 0.4392049171511666 -3.797401223444441" calculation_info="_JSON {\"calculation_id\": 22456, \"calculator\": \"vasp\", \"calculation_source_path\": \"/home/myless/Calc_VASP/MRS/job_gen_7-2025-04-10/Cr/Cr2_bcc_distorted_idx_2545\", \"nbands\": 64, \"parser\": \"ase_outcar\", \"potcar\": \"PAW_PBE Cr_pv 02Aug2007\", \"kpoints\": [20, 19, 21], \"date_run\": \"2025.03.19  01:19:40\", \"vasp_version\": \"vasp.6.4.2 20Jul23\", \"resources_used\": {\"nodes\": 1, \"mpi_ranks\": 64, \"gpus_detected\": false, \"threads_per_rank\": 2}, \"calculation_type\": \"static\"}" parent_id=22461 step=11 variance=0.35268837213516235 loss=0.35268837213516235 pbc="T T T"
Cr       0.06795878       0.07230560      -0.02673453      -0.07273878       0.02607472      -0.33947670
Cr       1.08817707       0.87187062       1.31768320       0.07273872      -0.02607445       0.33947590
2
Lattice="2.337073889 -0.60319758 0.099952302 -0.321381027 2.50999995 0.361063057 0.021271175 -0.299915821 2.263011147" Properties=species:S:1:pos:R:3:forces:R:3 generation=8 config_type=bcc_distorted_aa source_path=/home/myless/Calc_VASP/MRS/job_gen_7-2025-04-10/Cr/Cr2_bcc_distorted_idx_2545 formula_string=Cr2 composition_str=Cr2 structure_index=2545 date_added_to_db=2025-04-14T00:14:09.727082 structure_id=22461 energy=-6.069682312011719 stress="-3.223455861827041 -1.501488649109615 0.20158877979303494 -1.501488649109615 -3.201595032287217 0.4392049171511666 0.20158877979303494 0.4392049171511666 -3.797401223444441" calculation_info="_JSON {\"calculation_id\": 22456, \"calculator\": \"vasp\", \"calculation_source_path\": \"/home/myless/Calc_VASP/MRS/job_gen_7-2025-04-10/Cr/Cr2_bcc_distorted_idx_2545\", \"nbands\": 64, \"parser\": \"ase_outcar\", \"potcar\": \"PAW_PBE Cr_pv 02Aug2007\", \"kpoints\": [20, 19, 21], \"date_run\": \"2025.03.19  01:19:40\", \"vasp_version\": \"vasp.6.4.2 20Jul23\", \"resources_used\": {\"nodes\": 1, \"mpi_ranks\": 64, \"gpus_detected\": false, \"threads_per_rank\": 2}, \"calculation_type\": \"static\"}" parent_id=22461 step=12 variance=0.3567677438259125 loss=0.3567677438259125 pbc="T T T"
Cr       0.07067795       0.07538664      -0.02716970      -0.08059397       0.02486068      -0.35617417
Cr       1.09097828       0.87448832       1.31635433       0.08059404      -0.02486035       0.35617432
2
Lattice="2.337073889 -0.60319758 0.099952302 -0.321381027 2.50999995 0.361063057 0.021271175 -0.299915821 2.263011147" Properties=species:S:1:pos:R:3:forces:R:3 generation=8 config_type=bcc_distorted_aa source_path=/home/myless/Calc_VASP/MRS/job_gen_7-2025-04-10/Cr/Cr2_bcc_distorted_idx_2545 formula_string=Cr2 composition_str=Cr2 structure_index=2545 date_added_to_db=2025-04-14T00:14:09.727082 structure_id=22461 energy=-6.069411373138427 stress="-3.223455861827041 -1.501488649109615 0.20158877979303494 -1.501488649109615 -3.201595032287217 0.4392049171511666 0.20158877979303494 0.4392049171511666 -3.797401223444441" calculation_info="_JSON {\"calculation_id\": 22456, \"calculator\": \"vasp\", \"calculation_source_path\": \"/home/myless/Calc_VASP/MRS/job_gen_7-2025-04-10/Cr/Cr2_bcc_distorted_idx_2545\", \"nbands\": 64, \"parser\": \"ase_outcar\", \"potcar\": \"PAW_PBE Cr_pv 02Aug2007\", \"kpoints\": [20, 19, 21], \"date_run\": \"2025.03.19  01:19:40\", \"vasp_version\": \"vasp.6.4.2 20Jul23\", \"resources_used\": {\"nodes\": 1, \"mpi_ranks\": 64, \"gpus_detected\": false, \"threads_per_rank\": 2}, \"calculation_type\": \"static\"}" parent_id=22461 step=13 variance=0.36054879426956177 loss=0.36054879426956177 pbc="T T T"
Cr       0.07313129       0.07818057      -0.02757275      -0.08816125       0.02337704      -0.37073526
Cr       1.09350203       0.87683261       1.31516735       0.08816131      -0.02337722       0.37073469
2
Lattice="2.337073889 -0.60319758 0.099952302 -0.321381027 2.50999995 0.361063057 0.021271175 -0.299915821 2.263011147" Properties=species:S:1:pos:R:3:forces:R:3 generation=8 config_type=bcc_distorted_aa source_path=/home/myless/Calc_VASP/MRS/job_gen_7-2025-04-10/Cr/Cr2_bcc_distorted_idx_2545 formula_string=Cr2 composition_str=Cr2 structure_index=2545 date_added_to_db=2025-04-14T00:14:09.727082 structure_id=22461 energy=-6.069169521331787 stress="-3.223455861827041 -1.501488649109615 0.20158877979303494 -1.501488649109615 -3.201595032287217 0.4392049171511666 0.20158877979303494 0.4392049171511666 -3.797401223444441" calculation_info="_JSON {\"calculation_id\": 22456, \"calculator\": \"vasp\", \"calculation_source_path\": \"/home/myless/Calc_VASP/MRS/job_gen_7-2025-04-10/Cr/Cr2_bcc_distorted_idx_2545\", \"nbands\": 64, \"parser\": \"ase_outcar\", \"potcar\": \"PAW_PBE Cr_pv 02Aug2007\", \"kpoints\": [20, 19, 21], \"date_run\": \"2025.03.19  01:19:40\", \"vasp_version\": \"vasp.6.4.2 20Jul23\", \"resources_used\": {\"nodes\": 1, \"mpi_ranks\": 64, \"gpus_detected\": false, \"threads_per_rank\": 2}, \"calculation_type\": \"static\"}" parent_id=22461 step=14 variance=0.3641296625137329 loss=0.3641296625137329 pbc="T T T"
Cr       0.07534941       0.08072017      -0.02794750      -0.09546351       0.02166560      -0.38340726
Cr       1.09578044       0.87893594       1.31410555       0.09546312      -0.02166573       0.38340771
2
Lattice="2.337073889 -0.60319758 0.099952302 -0.321381027 2.50999995 0.361063057 0.021271175 -0.299915821 2.263011147" Properties=species:S:1:pos:R:3:forces:R:3 generation=8 config_type=bcc_distorted_aa source_path=/home/myless/Calc_VASP/MRS/job_gen_7-2025-04-10/Cr/Cr2_bcc_distorted_idx_2545 formula_string=Cr2 composition_str=Cr2 structure_index=2545 date_added_to_db=2025-04-14T00:14:09.727082 structure_id=22461 energy=-6.068948268890381 stress="-3.223455861827041 -1.501488649109615 0.20158877979303494 -1.501488649109615 -3.201595032287217 0.4392049171511666 0.20158877979303494 0.4392049171511666 -3.797401223444441" calculation_info="_JSON {\"calculation_id\": 22456, \"calculator\": \"vasp\", \"calculation_source_path\": \"/home/myless/Calc_VASP/MRS/job_gen_7-2025-04-10/Cr/Cr2_bcc_distorted_idx_2545\", \"nbands\": 64, \"parser\": \"ase_outcar\", \"potcar\": \"PAW_PBE Cr_pv 02Aug2007\", \"kpoints\": [20, 19, 21], \"date_run\": \"2025.03.19  01:19:40\", \"vasp_version\": \"vasp.6.4.2 20Jul23\", \"resources_used\": {\"nodes\": 1, \"mpi_ranks\": 64, \"gpus_detected\": false, \"threads_per_rank\": 2}, \"calculation_type\": \"static\"}" parent_id=22461 step=15 variance=0.36754310131073 loss=0.36754310131073 pbc="T T T"
Cr       0.07735834       0.08303320      -0.02829779      -0.10249208       0.01977176      -0.39437875
Cr       1.09784114       0.88082569       1.31315576       0.10249225      -0.01977185       0.39437860
2
Lattice="2.337073889 -0.60319758 0.099952302 -0.321381027 2.50999995 0.361063057 0.021271175 -0.299915821 2.263011147" Properties=species:S:1:pos:R:3:forces:R:3 generation=8 config_type=bcc_distorted_aa source_path=/home/myless/Calc_VASP/MRS/job_gen_7-2025-04-10/Cr/Cr2_bcc_distorted_idx_2545 formula_string=Cr2 composition_str=Cr2 structure_index=2545 date_added_to_db=2025-04-14T00:14:09.727082 structure_id=22461 energy=-6.068754959106445 stress="-3.223455861827041 -1.501488649109615 0.20158877979303494 -1.501488649109615 -3.201595032287217 0.4392049171511666 0.20158877979303494 0.4392049171511666 -3.797401223444441" calculation_info="_JSON {\"calculation_id\": 22456, \"calculator\": \"vasp\", \"calculation_source_path\": \"/home/myless/Calc_VASP/MRS/job_gen_7-2025-04-10/Cr/Cr2_bcc_distorted_idx_2545\", \"nbands\": 64, \"parser\": \"ase_outcar\", \"potcar\": \"PAW_PBE Cr_pv 02Aug2007\", \"kpoints\": [20, 19, 21], \"date_run\": \"2025.03.19  01:19:40\", \"vasp_version\": \"vasp.6.4.2 20Jul23\", \"resources_used\": {\"nodes\": 1, \"mpi_ranks\": 64, \"gpus_detected\": false, \"threads_per_rank\": 2}, \"calculation_type\": \"static\"}" parent_id=22461 step=16 variance=0.37081244587898254 loss=0.37081244587898254 pbc="T T T"
Cr       0.07918031       0.08514335      -0.02862666      -0.10927044       0.01772033      -0.40382671
Cr       1.09970759       0.88252517       1.31230623       0.10927053      -0.01772006       0.40382656
2
Lattice="2.337073889 -0.60319758 0.099952302 -0.321381027 2.50999995 0.361063057 0.021271175 -0.299915821 2.263011147" Properties=species:S:1:pos:R:3:forces:R:3 generation=8 config_type=bcc_distorted_aa source_path=/home/myless/Calc_VASP/MRS/job_gen_7-2025-04-10/Cr/Cr2_bcc_distorted_idx_2545 formula_string=Cr2 composition_str=Cr2 structure_index=2545 date_added_to_db=2025-04-14T00:14:09.727082 structure_id=22461 energy=-6.068581867218017 stress="-3.223455861827041 -1.501488649109615 0.20158877979303494 -1.501488649109615 -3.201595032287217 0.4392049171511666 0.20158877979303494 0.4392049171511666 -3.797401223444441" calculation_info="_JSON {\"calculation_id\": 22456, \"calculator\": \"vasp\", \"calculation_source_path\": \"/home/myless/Calc_VASP/MRS/job_gen_7-2025-04-10/Cr/Cr2_bcc_distorted_idx_2545\", \"nbands\": 64, \"parser\": \"ase_outcar\", \"potcar\": \"PAW_PBE Cr_pv 02Aug2007\", \"kpoints\": [20, 19, 21], \"date_run\": \"2025.03.19  01:19:40\", \"vasp_version\": \"vasp.6.4.2 20Jul23\", \"resources_used\": {\"nodes\": 1, \"mpi_ranks\": 64, \"gpus_detected\": false, \"threads_per_rank\": 2}, \"calculation_type\": \"static\"}" parent_id=22461 step=17 variance=0.3739761710166931 loss=0.3739761710166931 pbc="T T T"
Cr       0.08083451       0.08707125      -0.02893657      -0.11580162       0.01554580      -0.41190082
Cr       1.10139995       0.88405463       1.31154637       0.11580151      -0.01554600       0.41190118
2
Lattice="2.337073889 -0.60319758 0.099952302 -0.321381027 2.50999995 0.361063057 0.021271175 -0.299915821 2.263011147" Properties=species:S:1:pos:R:3:forces:R:3 generation=8 config_type=bcc_distorted_aa source_path=/home/myless/Calc_VASP/MRS/job_gen_7-2025-04-10/Cr/Cr2_bcc_distorted_idx_2545 formula_string=Cr2 composition_str=Cr2 structure_index=2545 date_added_to_db=2025-04-14T00:14:09.727082 structure_id=22461 energy=-6.068432140350342 stress="-3.223455861827041 -1.501488649109615 0.20158877979303494 -1.501488649109615 -3.201595032287217 0.4392049171511666 0.20158877979303494 0.4392049171511666 -3.797401223444441" calculation_info="_JSON {\"calculation_id\": 22456, \"calculator\": \"vasp\", \"calculation_source_path\": \"/home/myless/Calc_VASP/MRS/job_gen_7-2025-04-10/Cr/Cr2_bcc_distorted_idx_2545\", \"nbands\": 64, \"parser\": \"ase_outcar\", \"potcar\": \"PAW_PBE Cr_pv 02Aug2007\", \"kpoints\": [20, 19, 21], \"date_run\": \"2025.03.19  01:19:40\", \"vasp_version\": \"vasp.6.4.2 20Jul23\", \"resources_used\": {\"nodes\": 1, \"mpi_ranks\": 64, \"gpus_detected\": false, \"threads_per_rank\": 2}, \"calculation_type\": \"static\"}" parent_id=22461 step=18 variance=0.3770330250263214 loss=0.3770330250263214 pbc="T T T"
Cr       0.08233748       0.08883487      -0.02922981      -0.12208734       0.01327657      -0.41874623
Cr       1.10293593       0.88543148       1.31086718       0.12208734      -0.01327653       0.41874582
2