8
Lattice="5.299379111 -0.295505568 -0.371599515 0.335976445 5.458398474 -0.216631171 -0.300532877 -0.350001843 5.307028088" Properties=species:S:1:pos:R:3:forces:R:3 batch_id=T generation=6 composition=V8 config_type=A15 source_path=V-Cr-Ti-W-Zr/Fixed_Engrads/vcrtiwzr_fin_engrads/job_gen_6-2024-12-23/V/V8_A15_idx_2967 temperature=T date_processed=2025-01-03T17:40:36.280962 structure_type=T structure_index=2967 adversarial_step=T structure_id=8473 energy=-65.54938 stress="0.1869540137531384 0.009172515569888911 -0.010156370894911015 0.009172515569888911 0.18871983654899677 -0.011291252016252116 -0.010156370894911015 -0.011291252016252116 0.19032245012272248" calculation_info="_JSON {\"calculation_id\": 8473, \"calculator\": \"vasp\", \"calculation_source_path\": \"\", \"error\": null, \"status\": \"completed\", \"gpu_count\": null, \"parameters\": {}, \"date_started\": null, \"gpu_memory_mb\": null, \"model_version\": null, \"date_completed\": null, \"runtime_seconds\": null}" pbc="T T T"
V        0.00000000       0.00000000       0.00000000       0.00000000       0.00000000       0.00000000
V        2.66741000       2.40645000       2.35940000       0.00000000       0.00000000       0.00000000
V        1.49283000       2.65532000      -0.20122000       0.00625600      -0.01375200       0.02075800
V        4.14252000       2.50757000      -0.38702000      -0.00625600       0.01375200      -0.02075800
V        5.23311000       0.89409000       2.22776000       0.00801100      -0.01775100      -0.03416000
V        0.10172000       3.91880000       2.49104000      -0.00801100       0.01775100       0.03416000
V        2.57456000      -0.23525000       1.14096000       0.00773700       0.00576200       0.01794700
V        2.76027000       5.04814000       3.57784000      -0.00773700      -0.00576200      -0.01794700
8
Lattice="5.299379111 -0.295505568 -0.371599515 0.335976445 5.458398474 -0.216631171 -0.300532877 -0.350001843 5.307028088" Properties=species:S:1:pos:R:3:forces:R:3 batch_id=T generation=8 composition=V8 config_type=A15_aa source_path=V-Cr-Ti-W-Zr/Fixed_Engrads/vcrtiwzr_fin_engrads/job_gen_6-2024-12-23/V/V8_A15_idx_2967 temperature=T date_processed=2025-01-03T17:40:36.280962 structure_type=T structure_index=2967 adversarial_step=T structure_id=8473 energy=-65.57353820800782 stress="0.1869540137531384 0.009172515569888911 -0.010156370894911015 0.009172515569888911 0.18871983654899677 -0.011291252016252116 -0.010156370894911015 -0.011291252016252116 0.19032245012272248" calculation_info="_JSON {\"calculation_id\": 8473, \"calculator\": \"vasp\", \"calculation_source_path\": \"\", \"error\": null, \"status\": \"completed\", \"gpu_count\": null, \"parameters\": {}, \"date_started\": null, \"gpu_memory_mb\": null, \"model_version\": null, \"date_completed\": null, \"runtime_seconds\": null}" parent_id=8473 step=0 variance=0.3811193108558655 loss=0.3811193108558655 pbc="T T T"
V        0.00000000       0.00000000       0.00000000       0.00000173       0.00000002       0.00000003
V        2.66741000       2.40645000       2.35940000      -0.00000385      -0.00000778       0.00000012
V        1.49283000       2.65532000      -0.20122000       0.01750571      -0.02991699       0.06074461
V        4.14252000       2.50757000      -0.38702000      -0.01749145       0.02992061      -0.06074048
V        5.23311000       0.89409000       2.22776000       0.01466652      -0.02085393      -0.08104548
V        0.10172000       3.91880000       2.49104000      -0.01466968       0.02085662       0.08105011
V        2.57456000      -0.23525000       1.14096000      -0.06273284       0.05696427       0.00837552
V        2.76027000       5.04814000       3.57784000       0.06272385      -0.05696279      -0.00838446
8
Lattice="5.299379111 -0.295505568 -0.371599515 0.335976445 5.458398474 -0.216631171 -0.300532877 -0.350001843 5.307028088" Properties=species:S:1:pos:R:3:forces:R:3 batch_id=T generation=8 composition=V8 config_type=A15_aa source_path=V-Cr-Ti-W-Zr/Fixed_Engrads/vcrtiwzr_fin_engrads/job_gen_6-2024-12-23/V/V8_A15_idx_2967 temperature=T date_processed=2025-01-03T17:40:36.280962 structure_type=T structure_index=2967 adversarial_step=T structure_id=8473 energy=-65.57284851074219 stress="0.1869540137531384 0.009172515569888911 -0.010156370894911015 0.009172515569888911 0.18871983654899677 -0.011291252016252116 -0.010156370894911015 -0.011291252016252116 0.19032245012272248" calculation_info="_JSON {\"calculation_id\": 8473, \"calculator\": \"vasp\", \"calculation_source_path\": \"\", \"error\": null, \"status\": \"completed\", \"gpu_count\": null, \"parameters\": {}, \"date_started\": null, \"gpu_memory_mb\": null, \"model_version\": null, \"date_completed\": null, \"runtime_seconds\": null}" parent_id=8473 step=1 variance=0.3594617247581482 loss=0.3594617247581482 pbc="T T T"
V       -0.01000000      -0.01000000      -0.01000000      -0.00330072       0.00779480      -0.00287481
V        2.65741000       2.39645000       2.34940000       0.00945406       0.01176609       0.00103979
V        1.48283000       2.66532000      -0.21122000       0.02852428      -0.04175937       0.05884457
V        4.13252000       2.51757000      -0.39702000      -0.00539901       0.01801095      -0.06245248
V        5.22311000       0.88409000       2.21776000       0.00795337      -0.00408984      -0.07974456
V        0.09172000       3.90880000       2.48104000      -0.02125693       0.03740291       0.08170269
V        2.58456000      -0.22525000       1.13096000      -0.07069932       0.04198197       0.01059167
V        2.77027000       5.05814000       3.56784000       0.05472423      -0.07110757      -0.00710683
8
Lattice="5.299379111 -0.295505568 -0.371599515 0.335976445 5.458398474 -0.216631171 -0.300532877 -0.350001843 5.307028088" Properties=species:S:1:pos:R:3:forces:R:3 batch_id=T generation=8 composition=V8 config_type=A15_aa source_path=V-Cr-Ti-W-Zr/Fixed_Engrads/vcrtiwzr_fin_engrads/job_gen_6-2024-12-23/V/V8_A15_idx_2967 temperature=T date_processed=2025-01-03T17:40:36.280962 structure_type=T structure_index=2967 adversarial_step=T structure_id=8473 energy=-65.57164459228515 stress="0.1869540137531384 0.009172515569888911 -0.010156370894911015 0.009172515569888911 0.18871983654899677 -0.011291252016252116 -0.010156370894911015 -0.011291252016252116 0.19032245012272248" calculation_info="_JSON {\"calculation_id\": 8473, \"calculator\": \"vasp\", \"calculation_source_path\": \"\", \"error\": null, \"status\": \"completed\", \"gpu_count\": null, \"parameters\": {}, \"date_started\": null, \"gpu_memory_mb\": null, \"model_version\": null, \"date_completed\": null, \"runtime_seconds\": null}" parent_id=8473 step=2 variance=0.35239076614379883 loss=0.35239076614379883 pbc="T T T"
V       -0.01675321      -0.01658313      -0.01672978      -0.00534667       0.01293315      -0.00479414
V        2.65072939       2.38975896       2.34274097       0.01576713       0.01959602       0.00167113
V        1.47614545       2.67187877      -0.21788769       0.03519721      -0.04943757       0.05733322
V        4.12580716       2.52431779      -0.40382824       0.00336529       0.00979449      -0.06331156
V        5.21642633       0.87738939       2.21102547       0.00337705       0.00727778      -0.07837545
V        0.08503185       3.90205036       2.47434524      -0.02567214       0.04841482       0.08185829
V        2.59121844      -0.21852353       1.12427512      -0.07593538       0.03142767       0.01241691
V        2.77701817       5.06479246       3.56113370       0.04924750      -0.08000647      -0.00679843
8
Lattice="5.299379111 -0.295505568 -0.371599515 0.335976445 5.458398474 -0.216631171 -0.300532877 -0.350001843 5.307028088" Properties=species:S:1:pos:R:3:forces:R:3 batch_id=T generation=8 composition=V8 config_type=A15_aa source_path=V-Cr-Ti-W-Zr/Fixed_Engrads/vcrtiwzr_fin_engrads/job_gen_6-2024-12-23/V/V8_A15_idx_2967 temperature=T date_processed=2025-01-03T17:40:36.280962 structure_type=T structure_index=2967 adversarial_step=T structure_id=8473 energy=-65.57032470703125 stress="0.1869540137531384 0.009172515569888911 -0.010156370894911015 0.009172515569888911 0.18871983654899677 -0.011291252016252116 -0.010156370894911015 -0.011291252016252116 0.19032245012272248" calculation_info="_JSON {\"calculation_id\": 8473, \"calculator\": \"vasp\", \"calculation_source_path\": \"\", \"error\": null, \"status\": \"completed\", \"gpu_count\": null, \"parameters\": {}, \"date_started\": null, \"gpu_memory_mb\": null, \"model_version\": null, \"date_completed\": null, \"runtime_seconds\": null}" parent_id=8473 step=3 variance=0.3453519642353058 loss=0.3453519642353058 pbc="T T T"
V       -0.02200417      -0.02159706      -0.02195058      -0.00679208       0.01687193      -0.00629956
V        2.64557943       2.38459299       2.33761970       0.02064979       0.02560811       0.00213044
V        1.47098701       2.67686074      -0.22301923       0.03997859      -0.05522161       0.05600022
V        4.12061401       2.52955094      -0.40918983       0.01048575       0.00330393      -0.06377377
V        5.21126753       0.87219811       2.20578540      -0.00021040       0.01613621      -0.07697062
V        0.07986226       3.89681873       2.46919368      -0.02910917       0.05687134       0.08183684
V        2.59633811      -0.21330484       1.11911515      -0.07988097       0.02300263       0.01399491
V        2.78230290       5.06990620       3.55595165       0.04487851      -0.08657257      -0.00691844
8
Lattice="5.299379111 -0.295505568 -0.371599515 0.335976445 5.458398474 -0.216631171 -0.300532877 -0.350001843 5.307028088" Properties=species:S:1:pos:R:3:forces:R:3 batch_id=T generation=8 composition=V8 config_type=A15_aa source_path=V-Cr-Ti-W-Zr/Fixed_Engrads/vcrtiwzr_fin_engrads/job_gen_6-2024-12-23/V/V8_A15_idx_2967 temperature=T date_processed=2025-01-03T17:40:36.280962 structure_type=T structure_index=2967 adversarial_step=T structure_id=8473 energy=-65.56898498535156 stress="0.1869540137531384 0.009172515569888911 -0.010156370894911015 0.009172515569888911 0.18871983654899677 -0.011291252016252116 -0.010156370894911015 -0.011291252016252116 0.19032245012272248" calculation_info="_JSON {\"calculation_id\": 8473, \"calculator\": \"vasp\", \"calculation_source_path\": \"\", \"error\": null, \"status\": \"completed\", \"gpu_count\": null, \"parameters\": {}, \"date_started\": null, \"gpu_memory_mb\": null, \"model_version\": null, \"date_completed\": null, \"runtime_seconds\": null}" parent_id=8473 step=4 variance=0.335416316986084 loss=0.335416316986084 pbc="T T T"
V       -0.02632567      -0.02564924      -0.02623899      -0.00786208       0.02007698      -0.00755453
V        2.64136859       2.38036532       2.33344258       0.02464995       0.03050612       0.00248774
V        1.46677122       2.68086300      -0.22720593       0.04363979      -0.05983063       0.05479818
V        4.11635686       2.53385070      -0.41365244       0.01652366      -0.00211446      -0.06400550
V        5.20704535       0.86793890       2.20146527      -0.00315868       0.02342482      -0.07557295
V        0.07562977       3.89253078       2.46498885      -0.03195616       0.06374609       0.08174060
V        2.60049438      -0.20902534       1.11489418      -0.08301647       0.01594899       0.01537315
V        2.78667753       5.07407279       3.55170931       0.04118001      -0.09175791      -0.00726668
8
Lattice="5.299379111 -0.295505568 -0.371599515 0.335976445 5.458398474 -0.216631171 -0.300532877 -0.350001843 5.307028088" Properties=species:S:1:pos:R:3:forces:R:3 batch_id=T generation=8 composition=V8 config_type=A15_aa source_path=V-Cr-Ti-W-Zr/Fixed_Engrads/vcrtiwzr_fin_engrads/job_gen_6-2024-12-23/V/V8_A15_idx_2967 temperature=T date_processed=2025-01-03T17:40:36.280962 structure_type=T structure_index=2967 adversarial_step=T structure_id=8473 energy=-65.56768035888672 stress="0.1869540137531384 0.009172515569888911 -0.010156370894911015 0.009172515569888911 0.18871983654899677 -0.011291252016252116 -0.010156370894911015 -0.011291252016252116 0.19032245012272248" calculation_info="_JSON {\"calculation_id\": 8473, \"calculator\": \"vasp\", \"calculation_source_path\": \"\", \"error\": null, \"status\": \"completed\", \"gpu_count\": null, \"parameters\": {}, \"date_started\": null, \"gpu_memory_mb\": null, \"model_version\": null, \"date_completed\": null, \"runtime_seconds\": null}" parent_id=8473 step=5 variance=0.3262370228767395 loss=0.3262370228767395 pbc="T T T"
V       -0.02999451      -0.02903284      -0.02987240      -0.00867328       0.02277021      -0.00863289
V        2.63781427       2.37679480       2.32992506       0.02803590       0.03462785       0.00277476
V        1.46321718       2.68418090      -0.23072797       0.04655283      -0.06362228       0.05369912
V        4.11275558       2.53749384      -0.41748070       0.02176536      -0.00677565      -0.06408966
V        5.20347870       0.86433452       2.19779224      -0.00565213       0.02960411      -0.07420973
V        0.07205445       3.88890761       2.46144391      -0.03440111       0.06950835       0.08161329
V        2.60396721      -0.20541473       1.11133111      -0.08557150       0.00989923       0.01658891
V        2.79041637       5.07757771       3.54812635       0.03794390      -0.09601188      -0.00774380
8
Lattice="5.299379111 -0.295505568 -0.371599515 0.335976445 5.458398474 -0.216631171 -0.300532877 -0.350001843 5.307028088" Properties=species:S:1:pos:R:3:forces:R:3 batch_id=T generation=8 composition=V8 config_type=A15_aa source_path=V-Cr-Ti-W-Zr/Fixed_Engrads/vcrtiwzr_fin_engrads/job_gen_6-2024-12-23/V/V8_A15_idx_2967 temperature=T date_processed=2025-01-03T17:40:36.280962 structure_type=T structure_index=2967 adversarial_step=T structure_id=8473 energy=-65.56643829345703 stress="0.1869540137531384 0.009172515569888911 -0.010156370894911015 0.009172515569888911 0.18871983654899677 -0.011291252016252116 -0.010156370894911015 -0.011291252016252116 0.19032245012272248" calculation_info="_JSON {\"calculation_id\": 8473, \"calculator\": \"vasp\", \"calculation_source_path\": \"\", \"error\": null, \"status\": \"completed\", \"gpu_count\": null, \"parameters\": {}, \"date_started\": null, \"gpu_memory_mb\": null, \"model_version\": null, \"date_completed\": null, \"runtime_seconds\": null}" parent_id=8473 step=6 variance=0.3183836340904236 loss=0.3183836340904236 pbc="T T T"
V       -0.03317047      -0.03191361      -0.03301090      -0.00928628       0.02507672      -0.00957511
V        2.63475478       2.37371991       2.32690399       0.03095414       0.03816421       0.00300884
V        1.46016285       2.68698271      -0.23374840       0.04892312      -0.06679730       0.05268335
V        4.10964910       2.54063890      -0.42082725       0.02637925      -0.01085582      -0.06406672
V        5.20040623       0.86122507       2.19460889      -0.00779470       0.03493386      -0.07289490
V        0.06897469       3.88578913       2.45839498      -0.03654184       0.07443275       0.08147176
V        2.60692227      -0.20231216       1.10826372      -0.08768455       0.00463518       0.01766914
V        2.79367634       5.08058346       3.54504129       0.03505079      -0.09958957      -0.00829643
8
Lattice="5.299379111 -0.295505568 -0.371599515 0.335976445 5.458398474 -0.216631171 -0.300532877 -0.350001843 5.307028088" Properties=species:S:1:pos:R:3:forces:R:3 batch_id=T generation=8 composition=V8 config_type=A15_aa source_path=V-Cr-Ti-W-Zr/Fixed_Engrads/vcrtiwzr_fin_engrads/job_gen_6-2024-12-23/V/V8_A15_idx_2967 temperature=T date_processed=2025-01-03T17:40:36.280962 structure_type=T structure_index=2967 adversarial_step=T structure_id=8473 energy=-65.5652587890625 stress="0.1869540137531384 0.009172515569888911 -0.010156370894911015 0.009172515569888911 0.18871983654899677 -0.011291252016252116 -0.010156370894911015 -0.011291252016252116 0.19032245012272248" calculation_info="_JSON {\"calculation_id\": 8473, \"calculator\": \"vasp\", \"calculation_source_path\": \"\", \"error\": null, \"status\": \"completed\", \"gpu_count\": null, \"parameters\": {}, \"date_started\": null, \"gpu_memory_mb\": null, \"model_version\": null, \"date_completed\": null, \"runtime_seconds\": null}" parent_id=8473 step=7 variance=0.3117501735687256 loss=0.3117501735687256 pbc="T T T"
V       -0.03595685      -0.03439826      -0.03575793      -0.00974835       0.02707646      -0.01040882
V        2.63208615       2.37103697       2.32427493       0.03350249       0.04123780       0.00319925
V        1.45750346       2.68937954      -0.23637314       0.05089117      -0.06949203       0.05173917
V        4.10693418       2.54338848      -0.42379032       0.03047626      -0.01446976      -0.06396894
V        5.19772409       0.85850624       2.19181329      -0.00966157       0.03958971      -0.07163104
V        0.06628672       3.88307118       2.45573754      -0.03844376       0.07869911       0.08132972
V        2.60946725      -0.19961670       1.10558773      -0.08944556       0.00001162       0.01863270
V        2.79655888       5.08319535       3.54235018       0.03242926      -0.10265289      -0.00889201
8
Lattice="5.299379111 -0.295505568 -0.371599515 0.335976445 5.458398474 -0.216631171 -0.300532877 -0.350001843 5.307028088" Properties=species:S:1:pos:R:3:forces:R:3 batch_id=T generation=8 composition=V8 config_type=A15_aa source_path=V-Cr-Ti-W-Zr/Fixed_Engrads/vcrtiwzr_fin_engrads/job_gen_6-2024-12-23/V/V8_A15_idx_2967 temperature=T date_processed=2025-01-03T17:40:36.280962 structure_type=T structure_index=2967 adversarial_step=T structure_id=8473 energy=-65.56415252685547 stress="0.1869540137531384 0.009172515569888911 -0.010156370894911015 0.009172515569888911 0.18871983654899677 -0.011291252016252116 -0.010156370894911015 -0.011291252016252116 0.19032245012272248" calculation_info="_JSON {\"calculation_id\": 8473, \"calculator\": \"vasp\", \"calculation_source_path\": \"\", \"error\": null, \"status\": \"completed\", \"gpu_count\": null, \"parameters\": {}, \"date_started\": null, \"gpu_memory_mb\": null, \"model_version\": null, \"date_completed\": null, \"runtime_seconds\": null}" parent_id=8473 step=8 variance=0.30615711212158203 loss=0.30615711212158203 pbc="T T T"
V       -0.03842463      -0.03655923      -0.03818525      -0.01008875       0.02882106      -0.01114948
V        2.62973634       2.36867418       2.32196545       0.03574924       0.04393529       0.00335133
V        1.45516675       2.69144883      -0.23867441       0.05254508      -0.07179495       0.05086445
V        4.10453919       2.54581595      -0.42643758       0.03413690      -0.01769868      -0.06381319
V        5.19536065       0.85610682       2.18933529      -0.01129982       0.04369098      -0.07042570
V        0.06391845       3.88068233       2.45339905      -0.04015364       0.08242593       0.08118714
V        2.61167833      -0.19725607       1.10323119      -0.09091623      -0.00407520       0.01949804
V        2.79913501       5.08548456       3.53998097       0.03002723      -0.10530449      -0.00951263
8
Lattice="5.299379111 -0.295505568 -0.371599515 0.335976445 5.458398474 -0.216631171 -0.300532877 -0.350001843 5.307028088" Properties=species:S:1:pos:R:3:forces:R:3 batch_id=T generation=8 composition=V8 config_type=A15_aa source_path=V-Cr-Ti-W-Zr/Fixed_Engrads/vcrtiwzr_fin_engrads/job_gen_6-2024-12-23/V/V8_A15_idx_2967 temperature=T date_processed=2025-01-03T17:40:36.280962 structure_type=T structure_index=2967 adversarial_step=T structure_id=8473 energy=-65.56312103271485 stress="0.1869540137531384 0.009172515569888911 -0.010156370894911015 0.009172515569888911 0.18871983654899677 -0.011291252016252116 -0.010156370894911015 -0.011291252016252116 0.19032245012272248" calculation_info="_JSON {\"calculation_id\": 8473, \"calculator\": \"vasp\", \"calculation_source_path\": \"\", \"error\": null, \"status\": \"completed\", \"gpu_count\": null, \"parameters\": {}, \"date_started\": null, \"gpu_memory_mb\": null, \"model_version\": null, \"date_completed\": null, \"runtime_seconds\": null}" parent_id=8473 step=9 variance=0.3014165163040161 loss=0.3014165163040161 pbc="T T T"
V       -0.04062616      -0.03845138      -0.04034511      -0.01033274       0.03035015      -0.01180987
V        2.62765297       2.36657873       2.31992231       0.03774335       0.04631601       0.00346920
V        1.45309950       2.69324471      -0.24070610       0.05395216      -0.07377464       0.05004793
V        4.10241155       2.54797128      -0.42882030       0.03742411      -0.02060351      -0.06361745
V        5.19326307       0.85397378       2.18712245      -0.01275127       0.04732905      -0.06927439
V        0.06181693       3.87856892       2.45132598      -0.04169702       0.08571152       0.08105153
V        2.61360828      -0.19518071       1.10114122      -0.09214477      -0.00770176       0.02027614
V        2.80145510       5.08750291       3.53788084       0.02780625      -0.10762682      -0.01014310
8
Lattice="5.299379111 -0.295505568 -0.371599515 0.335976445 5.458398474 -0.216631171 -0.300532877 -0.350001843 5.307028088" Properties=species:S:1:pos:R:3:forces:R:3 batch_id=T generation=8 composition=V8 config_type=A15_aa source_path=V-Cr-Ti-W-Zr/Fixed_Engrads/vcrtiwzr_fin_engrads/job_gen_6-2024-12-23/V/V8_A15_idx_2967 temperature=T date_processed=2025-01-03T17:40:36.280962 structure_type=T structure_index=2967 adversarial_step=T structure_id=8473 energy=-65.56216735839844 stress="0.1869540137531384 0.009172515569888911 -0.010156370894911015 0.009172515569888911 0.18871983654899677 -0.011291252016252116 -0.010156370894911015 -0.011291252016252116 0.19032245012272248" calculation_info="_JSON {\"calculation_id\": 8473, \"calculator\": \"vasp\", \"calculation_source_path\": \"\", \"error\": null, \"status\": \"completed\", \"gpu_count\": null, \"parameters\": {}, \"date_started\": null, \"gpu_memory_mb\": null, \"model_version\": null, \"date_completed\": null, \"runtime_seconds\": null}" parent_id=8473 step=10 variance=0.297397255897522 loss=0.297397255897522 pbc="T T T"
V       -0.04260136      -0.04011466      -0.04227772      -0.01049479       0.03169604      -0.01240196
V        2.62579559       2.36471074       2.31810553       0.03952181       0.04842879       0.00355744
V        1.45126129       2.69480908      -0.24250921       0.05515519      -0.07547772       0.04928598
V        4.10051166       2.54989634      -0.43097580       0.04038239      -0.02322550      -0.06338672
V        5.19139163       0.85206765       2.18513575      -0.01404163       0.05056346      -0.06817966
V        0.05994220       3.87669037       2.44947887      -0.04310230       0.08861983       0.08091810
V        2.61529855      -0.19335130       1.09927790      -0.09316327      -0.01092620       0.02098092
V        2.80355915       5.08929155       3.53600962       0.02574259      -0.10967867      -0.01077402
8
Lattice="5.299379111 -0.295505568 -0.371599515 0.335976445 5.458398474 -0.216631171 -0.300532877 -0.350001843 5.307028088" Properties=species:S:1:pos:R:3:forces:R:3 batch_id=T generation=8 composition=V8 config_type=A15_aa source_path=V-Cr-Ti-W-Zr/Fixed_Engrads/vcrtiwzr_fin_engrads/job_gen_6-2024-12-23/V/V8_A15_idx_2967 temperature=T date_processed=2025-01-03T17:40:36.280962 structure_type=T structure_index=2967 adversarial_step=T structure_id=8473 energy=-65.561279296875 stress="0.1869540137531384 0.009172515569888911 -0.010156370894911015 0.009172515569888911 0.18871983654899677 -0.011291252016252116 -0.010156370894911015 -0.011291252016252116 0.19032245012272248" calculation_info="_JSON {\"calculation_id\": 8473, \"calculator\": \"vasp\", \"calculation_source_path\": \"\", \"error\": null, \"status\": \"completed\", \"gpu_count\": null, \"parameters\": {}, \"date_started\": null, \"gpu_memory_mb\": null, \"model_version\": null, \"date_completed\": null, \"runtime_seconds\": null}" parent_id=8473 step=11 variance=0.29397866129875183 loss=0.29397866129875183 pbc="T T T"
V       -0.04438136      -0.04158189      -0.04401430      -0.01059045       0.03288208      -0.01293111
V        2.62413334       2.36303899       2.31648387       0.04111226       0.05030779       0.00361664
V        1.44962022       2.69617481      -0.24411609       0.05620125      -0.07694711       0.04857140
V        4.09880813       2.55162231      -0.43293475       0.04305035      -0.02560558      -0.06313326
V        5.18971488       0.85035692       2.18334387      -0.01519684       0.05345248      -0.06713681
V        0.05826281       3.87501517       2.44782639      -0.04438294       0.09120237       0.08078814
V        2.61678436      -0.19173699       1.09760958      -0.09400637      -0.01379291       0.02162370
V        2.80547687       5.09088030       3.53433571       0.02381271      -0.11149917      -0.01139881
8
Lattice="5.299379111 -0.295505568 -0.371599515 0.335976445 5.458398474 -0.216631171 -0.300532877 -0.350001843 5.307028088" Properties=species:S:1:pos:R:3:forces:R:3 batch_id=T generation=8 composition=V8 config_type=A15_aa source_path=V-Cr-Ti-W-Zr/Fixed_Engrads/vcrtiwzr_fin_engrads/job_gen_6-2024-12-23/V/V8_A15_idx_2967 temperature=T date_processed=2025-01-03T17:40:36.280962 structure_type=T structure_index=2967 adversarial_step=T structure_id=8473 energy=-65.56047210693359 stress="0.1869540137531384 0.009172515569888911 -0.010156370894911015 0.009172515569888911 0.18871983654899677 -0.011291252016252116 -0.010156370894911015 -0.011291252016252116 0.19032245012272248" calculation_info="_JSON {\"calculation_id\": 8473, \"calculator\": \"vasp\", \"calculation_source_path\": \"\", \"error\": null, \"status\": \"completed\", \"gpu_count\": null, \"parameters\": {}, \"date_started\": null, \"gpu_memory_mb\": null, \"model_version\": null, \"date_completed\": null, \"runtime_seconds\": null}" parent_id=8473 step=12 variance=0.2910676896572113 loss=0.2910676896572113 pbc="T T T"
V       -0.04599144      -0.04287743      -0.04558009      -0.01063105       0.03392512      -0.01340448
V        2.62264060       2.36153790       2.31503149       0.04254041       0.05198722       0.00365301
V        1.44815092       2.69736889      -0.24555334       0.05710972      -0.07821346       0.04790726
V        4.09727568       2.55317450      -0.43472108       0.04546279      -0.02777120      -0.06286261
V        5.18820743       0.84881638       2.18172185      -0.01623363       0.05603657      -0.06614845
V        0.05675333       3.87351736       2.44634311      -0.04555725       0.09350622       0.08066483
V        2.61809279      -0.19031216       1.09611108      -0.09469420      -0.01634558       0.02220736
V        2.80723158       5.09229398       3.53283350       0.02200327      -0.11312493      -0.01201692
8
Lattice="5.299379111 -0.295505568 -0.371599515 0.335976445 5.458398474 -0.216631171 -0.300532877 -0.350001843 5.307028088" Properties=species:S:1:pos:R:3:forces:R:3 batch_id=T generation=8 composition=V8 config_type=A15_aa source_path=V-Cr-Ti-W-Zr/Fixed_Engrads/vcrtiwzr_fin_engrads/job_gen_6-2024-12-23/V/V8_A15_idx_2967 temperature=T date_processed=2025-01-03T17:40:36.280962 structure_type=T structure_index=2967 adversarial_step=T structure_id=8473 energy=-65.55971984863281 stress="0.1869540137531384 0.009172515569888911 -0.010156370894911015 0.009172515569888911 0.18871983654899677 -0.011291252016252116 -0.010156370894911015 -0.011291252016252116 0.19032245012272248" calculation_info="_JSON {\"calculation_id\": 8473, \"calculator\": \"vasp\", \"calculation_source_path\": \"\", \"error\": null, \"status\": \"completed\", \"gpu_count\": null, \"parameters\": {}, \"date_started\": null, \"gpu_memory_mb\": null, \"model_version\": null, \"date_completed\": null, \"runtime_seconds\": null}" parent_id=8473 step=13 variance=0.2885963022708893 loss=0.2885963022708893 pbc="T T T"
V       -0.04745242      -0.04402288      -0.04699593      -0.01062241       0.03484362      -0.01382846
V        2.62129643       2.36018667       2.31372754       0.04382775       0.05348873       0.00366760
V        1.44683250       2.69841261      -0.24684176       0.05790471      -0.07930501       0.04728107
V        4.09589359       2.55457430      -0.43635481       0.04764267      -0.02974809      -0.06257877
V        5.18684856       0.84742528       2.18024926      -0.01716802       0.05835105      -0.06520740
V        0.05539316       3.87217570       2.44500826      -0.04663612       0.09556721       0.08054326
V        2.61924467      -0.18905776       1.09476155      -0.09524898      -0.01861491       0.02273967
V        2.80884295       5.09355325       3.53148207       0.02030040      -0.11458256      -0.01261689
8
Lattice="5.299379111 -0.295505568 -0.371599515 0.335976445 5.458398474 -0.216631171 -0.300532877 -0.350001843 5.307028088" Properties=species:S:1:pos:R:3:forces:R:3 batch_id=T generation=8 composition=V8 config_type=A15_aa source_path=V-Cr-Ti-W-Zr/Fixed_Engrads/vcrtiwzr_fin_engrads/job_gen_6-2024-12-23/V/V8_A15_idx_2967 temperature=T date_processed=2025-01-03T17:40:36.280962 structure_type=T structure_index=2967 adversarial_step=T structure_id=8473 energy=-65.55904235839844 stress="0.1869540137531384 0.009172515569888911 -0.010156370894911015 0.009172515569888911 0.18871983654899677 -0.011291252016252116 -0.010156370894911015 -0.011291252016252116 0.19032245012272248" calculation_info="_JSON {\"calculation_id\": 8473, \"calculator\": \"vasp\", \"calculation_source_path\": \"\", \"error\": null, \"status\": \"completed\", \"gpu_count\": null, \"parameters\": {}, \"date_started\": null, \"gpu_memory_mb\": null, \"model_version\": null, \"date_completed\": null, \"runtime_seconds\": null}" parent_id=8473 step=14 variance=0.2865046262741089 loss=0.2865046262741089 pbc="T T T"