6
Lattice="-0.366274054 3.456445401 3.831376201 3.858756858 0.289744319 3.929192645 4.055342375 3.704342119 0.201357796" Properties=species:S:1:pos:R:3:forces:R:3 batch_id=T generation=6 composition=V6 config_type=C15 source_path=V-Cr-Ti-W-Zr/Fixed_Engrads/vcrtiwzr_fin_engrads/job_gen_6-2024-12-23/V/V6_C15_idx_3074 temperature=T date_processed=2025-01-03T17:40:30.777447 structure_type=T structure_index=3074 adversarial_step=T structure_id=8383 energy=-50.20575 stress="0.1923120684697985 0.007595024070394924 -0.004716377646446307 0.007595024070394924 0.13768824056978776 0.0016794091020105341 -0.004716377646446307 0.0016794091020105341 0.15079514759075932" calculation_info="_JSON {\"calculation_id\": 8383, \"calculator\": \"vasp\", \"calculation_source_path\": \"\", \"error\": null, \"status\": \"completed\", \"gpu_count\": null, \"parameters\": {}, \"date_started\": null, \"gpu_memory_mb\": null, \"model_version\": null, \"date_completed\": null, \"runtime_seconds\": null}" pbc="T T T"
V        0.94348000       0.93132000       0.99524000       0.00000000       0.00000000       0.00000000
V        2.87286000       1.07619000       2.95984000       0.00000000       0.00000000       0.00000000
V        2.97115000       2.78349000       1.09592000       0.00000000       0.00000000       0.00000000
V        0.76034000       2.65954000       2.91093000       0.00000000       0.00000000       0.00000000
V        3.77391000       3.72527000       3.98096000       0.01597500       0.03983400      -0.02264000
V        5.66087000       5.58790000       5.97144000      -0.01597500      -0.03983400       0.02264000
6
Lattice="-0.366274054 3.456445401 3.831376201 3.858756858 0.289744319 3.929192645 4.055342375 3.704342119 0.201357796" Properties=species:S:1:pos:R:3:forces:R:3 batch_id=T generation=8 composition=V6 config_type=C15_aa source_path=V-Cr-Ti-W-Zr/Fixed_Engrads/vcrtiwzr_fin_engrads/job_gen_6-2024-12-23/V/V6_C15_idx_3074 temperature=T date_processed=2025-01-03T17:40:30.777447 structure_type=T structure_index=3074 adversarial_step=T structure_id=8383 energy=-50.22781219482422 stress="0.1923120684697985 0.007595024070394924 -0.004716377646446307 0.007595024070394924 0.13768824056978776 0.0016794091020105341 -0.004716377646446307 0.0016794091020105341 0.15079514759075932" calculation_info="_JSON {\"calculation_id\": 8383, \"calculator\": \"vasp\", \"calculation_source_path\": \"\", \"error\": null, \"status\": \"completed\", \"gpu_count\": null, \"parameters\": {}, \"date_started\": null, \"gpu_memory_mb\": null, \"model_version\": null, \"date_completed\": null, \"runtime_seconds\": null}" parent_id=8383 step=0 variance=0.4039921760559082 loss=0.4039921760559082 pbc="T T T"
V        0.94348000       0.93132000       0.99524000      -0.00000541      -0.00001098      -0.00000366
V        2.87286000       1.07619000       2.95984000      -0.00002310       0.00001242      -0.00002389
V        2.97115000       2.78349000       1.09592000       0.00000413      -0.00000122       0.00000005
V        0.76034000       2.65954000       2.91093000       0.00001589       0.00000149      -0.00000646
V        3.77391000       3.72527000       3.98096000      -0.00425084       0.02124584      -0.00250363
V        5.66087000       5.58790000       5.97144000       0.00425923      -0.02124756       0.00253757
6
Lattice="-0.366274054 3.456445401 3.831376201 3.858756858 0.289744319 3.929192645 4.055342375 3.704342119 0.201357796" Properties=species:S:1:pos:R:3:forces:R:3 batch_id=T generation=8 composition=V6 config_type=C15_aa source_path=V-Cr-Ti-W-Zr/Fixed_Engrads/vcrtiwzr_fin_engrads/job_gen_6-2024-12-23/V/V6_C15_idx_3074 temperature=T date_processed=2025-01-03T17:40:30.777447 structure_type=T structure_index=3074 adversarial_step=T structure_id=8383 energy=-50.22504501342773 stress="0.1923120684697985 0.007595024070394924 -0.004716377646446307 0.007595024070394924 0.13768824056978776 0.0016794091020105341 -0.004716377646446307 0.0016794091020105341 0.15079514759075932" calculation_info="_JSON {\"calculation_id\": 8383, \"calculator\": \"vasp\", \"calculation_source_path\": \"\", \"error\": null, \"status\": \"completed\", \"gpu_count\": null, \"parameters\": {}, \"date_started\": null, \"gpu_memory_mb\": null, \"model_version\": null, \"date_completed\": null, \"runtime_seconds\": null}" parent_id=8383 step=1 variance=0.19676494598388672 loss=0.19676494598388672 pbc="T T T"
V        0.95348000       0.94132000       0.98524000      -0.00108829      -0.02739962       0.03860498
V        2.88286000       1.08619000       2.96984000      -0.00685890      -0.01892576      -0.08046453
V        2.98115000       2.79349000       1.08592000      -0.00798132      -0.04425108       0.04742044
V        0.77034000       2.66954000       2.92093000       0.02096466      -0.03937393      -0.06629816
V        3.78391000       3.71527000       3.97096000      -0.00669550       0.08723585       0.02743268
V        5.67087000       5.57790000       5.96144000       0.00165940       0.04271457       0.03330459
6
Lattice="-0.366274054 3.456445401 3.831376201 3.858756858 0.289744319 3.929192645 4.055342375 3.704342119 0.201357796" Properties=species:S:1:pos:R:3:forces:R:3 batch_id=T generation=8 composition=V6 config_type=C15_aa source_path=V-Cr-Ti-W-Zr/Fixed_Engrads/vcrtiwzr_fin_engrads/job_gen_6-2024-12-23/V/V6_C15_idx_3074 temperature=T date_processed=2025-01-03T17:40:30.777447 structure_type=T structure_index=3074 adversarial_step=T structure_id=8383 energy=-50.22029800415039 stress="0.1923120684697985 0.007595024070394924 -0.004716377646446307 0.007595024070394924 0.13768824056978776 0.0016794091020105341 -0.004716377646446307 0.0016794091020105341 0.15079514759075932" calculation_info="_JSON {\"calculation_id\": 8383, \"calculator\": \"vasp\", \"calculation_source_path\": \"\", \"error\": null, \"status\": \"completed\", \"gpu_count\": null, \"parameters\": {}, \"date_started\": null, \"gpu_memory_mb\": null, \"model_version\": null, \"date_completed\": null, \"runtime_seconds\": null}" parent_id=8383 step=2 variance=0.13894017040729523 loss=0.13894017040729523 pbc="T T T"
V        0.96008604       0.94794651       0.97856428      -0.00132491      -0.04480768       0.06376778
V        2.88975740       1.09285950       2.97508248      -0.01157628      -0.03207042      -0.12731883
V        2.98785503       2.80019171       1.07919535      -0.01339736      -0.07269070       0.07679707
V        0.77704560       2.67632354       2.92762323       0.03577233      -0.06652964      -0.11177243
V        3.79059262       3.70862520       3.96414788      -0.00876569       0.13199483       0.04604744
V        5.67761519       5.57121016       5.95492758      -0.00070808       0.08410360       0.05247893
6
Lattice="-0.366274054 3.456445401 3.831376201 3.858756858 0.289744319 3.929192645 4.055342375 3.704342119 0.201357796" Properties=species:S:1:pos:R:3:forces:R:3 batch_id=T generation=8 composition=V6 config_type=C15_aa source_path=V-Cr-Ti-W-Zr/Fixed_Engrads/vcrtiwzr_fin_engrads/job_gen_6-2024-12-23/V/V6_C15_idx_3074 temperature=T date_processed=2025-01-03T17:40:30.777447 structure_type=T structure_index=3074 adversarial_step=T structure_id=8383 energy=-50.215161895751955 stress="0.1923120684697985 0.007595024070394924 -0.004716377646446307 0.007595024070394924 0.13768824056978776 0.0016794091020105341 -0.004716377646446307 0.0016794091020105341 0.15079514759075932" calculation_info="_JSON {\"calculation_id\": 8383, \"calculator\": \"vasp\", \"calculation_source_path\": \"\", \"error\": null, \"status\": \"completed\", \"gpu_count\": null, \"parameters\": {}, \"date_started\": null, \"gpu_memory_mb\": null, \"model_version\": null, \"date_completed\": null, \"runtime_seconds\": null}" parent_id=8383 step=3 variance=0.11322488635778427 loss=0.11322488635778427 pbc="T T T"
V        0.96514984       0.95303110       0.97342666      -0.00123734      -0.05762378       0.08289436
V        2.89521185       1.09799050       2.97844650      -0.01548797      -0.04216516      -0.16019996
V        2.99303924       2.80537055       1.07398987      -0.01766019      -0.09409607       0.09845317
V        0.78223077       2.68161858       2.93279534       0.04774974      -0.08802190      -0.14740415
V        3.79575086       3.70351808       3.95880953      -0.01057773       0.16673513       0.05973694
V        5.68285070       5.56605005       5.94998072      -0.00278653       0.11517177       0.06651965
6
Lattice="-0.366274054 3.456445401 3.831376201 3.858756858 0.289744319 3.929192645 4.055342375 3.704342119 0.201357796" Properties=species:S:1:pos:R:3:forces:R:3 batch_id=T generation=8 composition=V6 config_type=C15_aa source_path=V-Cr-Ti-W-Zr/Fixed_Engrads/vcrtiwzr_fin_engrads/job_gen_6-2024-12-23/V/V6_C15_idx_3074 temperature=T date_processed=2025-01-03T17:40:30.777447 structure_type=T structure_index=3074 adversarial_step=T structure_id=8383 energy=-50.210052490234375 stress="0.1923120684697985 0.007595024070394924 -0.004716377646446307 0.007595024070394924 0.13768824056978776 0.0016794091020105341 -0.004716377646446307 0.0016794091020105341 0.15079514759075932" calculation_info="_JSON {\"calculation_id\": 8383, \"calculator\": \"vasp\", \"calculation_source_path\": \"\", \"error\": null, \"status\": \"completed\", \"gpu_count\": null, \"parameters\": {}, \"date_started\": null, \"gpu_memory_mb\": null, \"model_version\": null, \"date_completed\": null, \"runtime_seconds\": null}" parent_id=8383 step=4 variance=0.10089728981256485 loss=0.10089728981256485 pbc="T T T"
V        0.96927295       0.95717184       0.96924134      -0.00100838      -0.06764509       0.09832463
V        2.89977330       1.10217601       2.98076391      -0.01895847      -0.05029212      -0.18501215
V        2.99728534       2.80961138       1.06972258      -0.02120249      -0.11123621       0.11554299
V        0.78647700       2.68600013       2.93703210       0.05800579      -0.10603734      -0.17690174
V        3.79997319       3.69935201       3.95437795      -0.01220059       0.19521835       0.07052723
V        5.68715192       5.56182856       5.94597484      -0.00463586       0.13999245       0.07751907
6
Lattice="-0.366274054 3.456445401 3.831376201 3.858756858 0.289744319 3.929192645 4.055342375 3.704342119 0.201357796" Properties=species:S:1:pos:R:3:forces:R:3 batch_id=T generation=8 composition=V6 config_type=C15_aa source_path=V-Cr-Ti-W-Zr/Fixed_Engrads/vcrtiwzr_fin_engrads/job_gen_6-2024-12-23/V/V6_C15_idx_3074 temperature=T date_processed=2025-01-03T17:40:30.777447 structure_type=T structure_index=3074 adversarial_step=T structure_id=8383 energy=-50.20512313842774 stress="0.1923120684697985 0.007595024070394924 -0.004716377646446307 0.007595024070394924 0.13768824056978776 0.0016794091020105341 -0.004716377646446307 0.0016794091020105341 0.15079514759075932" calculation_info="_JSON {\"calculation_id\": 8383, \"calculator\": \"vasp\", \"calculation_source_path\": \"\", \"error\": null, \"status\": \"completed\", \"gpu_count\": null, \"parameters\": {}, \"date_started\": null, \"gpu_memory_mb\": null, \"model_version\": null, \"date_completed\": null, \"runtime_seconds\": null}" parent_id=8383 step=5 variance=0.0941140353679657 loss=0.0941140353679657 pbc="T T T"
V        0.97274059       0.96065412       0.96572781      -0.00071324      -0.07573432       0.11116340
V        2.90370273       1.10570272       2.98240257      -0.02211254      -0.05702620      -0.20443574
V        3.00087382       2.81319521       1.06611473      -0.02423630      -0.12541986       0.12951422
V        0.79006436       2.68974486       2.94061397       0.06703706      -0.12162347      -0.20205598
V        3.80354021       3.69584228       3.95058500      -0.01368059       0.21928494       0.07936212
V        5.69079714       5.55826329       5.94261887      -0.00629439       0.16051891       0.08645197
6
Lattice="-0.366274054 3.456445401 3.831376201 3.858756858 0.289744319 3.929192645 4.055342375 3.704342119 0.201357796" Properties=species:S:1:pos:R:3:forces:R:3 batch_id=T generation=8 composition=V6 config_type=C15_aa source_path=V-Cr-Ti-W-Zr/Fixed_Engrads/vcrtiwzr_fin_engrads/job_gen_6-2024-12-23/V/V6_C15_idx_3074 temperature=T date_processed=2025-01-03T17:40:30.777447 structure_type=T structure_index=3074 adversarial_step=T structure_id=8383 energy=-50.2004638671875 stress="0.1923120684697985 0.007595024070394924 -0.004716377646446307 0.007595024070394924 0.13768824056978776 0.0016794091020105341 -0.004716377646446307 0.0016794091020105341 0.15079514759075932" calculation_info="_JSON {\"calculation_id\": 8383, \"calculator\": \"vasp\", \"calculation_source_path\": \"\", \"error\": null, \"status\": \"completed\", \"gpu_count\": null, \"parameters\": {}, \"date_started\": null, \"gpu_memory_mb\": null, \"model_version\": null, \"date_completed\": null, \"runtime_seconds\": null}" parent_id=8383 step=6 variance=0.08994228392839432 loss=0.08994228392839432 pbc="T T T"
V        0.97571547       0.96364122       0.96272186      -0.00039490      -0.08238909       0.12202819
V        2.90714762       1.10873331       2.98351371      -0.02497274      -0.06276393      -0.21972814
V        3.00396626       2.81628376       1.06300459      -0.02688055      -0.13734654       0.14109409
V        0.79315410       2.69300849       2.94370184       0.07513143      -0.13536352      -0.22394054
V        3.80661316       3.69282600       3.94727727      -0.01507303       0.23998551       0.08672699
V        5.69394631       5.55519163       5.93974777      -0.00781018       0.17787758       0.09381948
6
Lattice="-0.366274054 3.456445401 3.831376201 3.858756858 0.289744319 3.929192645 4.055342375 3.704342119 0.201357796" Properties=species:S:1:pos:R:3:forces:R:3 batch_id=T generation=8 composition=V6 config_type=C15_aa source_path=V-Cr-Ti-W-Zr/Fixed_Engrads/vcrtiwzr_fin_engrads/job_gen_6-2024-12-23/V/V6_C15_idx_3074 temperature=T date_processed=2025-01-03T17:40:30.777447 structure_type=T structure_index=3074 adversarial_step=T structure_id=8383 energy=-50.19609909057617 stress="0.1923120684697985 0.007595024070394924 -0.004716377646446307 0.007595024070394924 0.13768824056978776 0.0016794091020105341 -0.004716377646446307 0.0016794091020105341 0.15079514759075932" calculation_info="_JSON {\"calculation_id\": 8383, \"calculator\": \"vasp\", \"calculation_source_path\": \"\", \"error\": null, \"status\": \"completed\", \"gpu_count\": null, \"parameters\": {}, \"date_started\": null, \"gpu_memory_mb\": null, \"model_version\": null, \"date_completed\": null, \"runtime_seconds\": null}" parent_id=8383 step=7 variance=0.08718559145927429 loss=0.08718559145927429 pbc="T T T"
V        0.97830200       0.96623793       0.96011793      -0.00008967      -0.08794226       0.13130049
V        2.91020572       1.11137305       2.98420209      -0.02755625      -0.06775652      -0.23172526
V        3.00666670       2.81898097       1.06028833      -0.02921645      -0.14747405       0.15075287
V        0.79585027       2.69589196       2.94639927       0.08247457      -0.14764254      -0.24324603
V        3.80929543       3.69019851       3.94435481      -0.01639292       0.25802404       0.09295343
V        5.69670339       5.55250976       5.93725756      -0.00921921       0.19279143       0.09996448
6
Lattice="-0.366274054 3.456445401 3.831376201 3.858756858 0.289744319 3.929192645 4.055342375 3.704342119 0.201357796" Properties=species:S:1:pos:R:3:forces:R:3 batch_id=T generation=8 composition=V6 config_type=C15_aa source_path=V-Cr-Ti-W-Zr/Fixed_Engrads/vcrtiwzr_fin_engrads/job_gen_6-2024-12-23/V/V6_C15_idx_3074 temperature=T date_processed=2025-01-03T17:40:30.777447 structure_type=T structure_index=3074 adversarial_step=T structure_id=8383 energy=-50.192054748535156 stress="0.1923120684697985 0.007595024070394924 -0.004716377646446307 0.007595024070394924 0.13768824056978776 0.0016794091020105341 -0.004716377646446307 0.0016794091020105341 0.15079514759075932" calculation_info="_JSON {\"calculation_id\": 8383, \"calculator\": \"vasp\", \"calculation_source_path\": \"\", \"error\": null, \"status\": \"completed\", \"gpu_count\": null, \"parameters\": {}, \"date_started\": null, \"gpu_memory_mb\": null, \"model_version\": null, \"date_completed\": null, \"runtime_seconds\": null}" parent_id=8383 step=8 variance=0.08528832346200943 loss=0.08528832346200943 pbc="T T T"
V        0.98057224       0.96851660       0.95784305       0.00018280      -0.09261270       0.13924995
V        2.91294483       1.11369394       2.98452903      -0.02988233      -0.07218264      -0.24096496
V        3.00904705       2.82135867       1.05789372      -0.03128304      -0.15611628       0.15880193
V        0.79822503       2.69846502       2.94877790       0.08919086      -0.15872389      -0.26045436
V        3.81165884       3.68788781       3.94174910      -0.01766103       0.27387467       0.09826376
V        5.69913993       5.55014557       5.93507606      -0.01054728       0.20576079       0.10510363
6
Lattice="-0.366274054 3.456445401 3.831376201 3.858756858 0.289744319 3.929192645 4.055342375 3.704342119 0.201357796" Properties=species:S:1:pos:R:3:forces:R:3 batch_id=T generation=8 composition=V6 config_type=C15_aa source_path=V-Cr-Ti-W-Zr/Fixed_Engrads/vcrtiwzr_fin_engrads/job_gen_6-2024-12-23/V/V6_C15_idx_3074 temperature=T date_processed=2025-01-03T17:40:30.777447 structure_type=T structure_index=3074 adversarial_step=T structure_id=8383 energy=-50.18832168579102 stress="0.1923120684697985 0.007595024070394924 -0.004716377646446307 0.007595024070394924 0.13768824056978776 0.0016794091020105341 -0.004716377646446307 0.0016794091020105341 0.15079514759075932" calculation_info="_JSON {\"calculation_id\": 8383, \"calculator\": \"vasp\", \"calculation_source_path\": \"\", \"error\": null, \"status\": \"completed\", \"gpu_count\": null, \"parameters\": {}, \"date_started\": null, \"gpu_memory_mb\": null, \"model_version\": null, \"date_completed\": null, \"runtime_seconds\": null}" parent_id=8383 step=9 variance=0.08396980166435242 loss=0.08396980166435242 pbc="T T T"
V        0.98257895       0.97053005       0.95584397       0.00042303      -0.09656501       0.14608124
V        2.91541568       1.11574892       2.98454284      -0.03197212      -0.07617535      -0.24785075
V        3.01115995       2.82346952       1.05576795      -0.03312227      -0.16349603       0.16547176
V        0.80033116       2.70077833       2.95089022       0.09537557      -0.16879749      -0.27592364
V        3.81375617       3.68584148       3.93940910      -0.01889707       0.28789577       0.10281316
V        5.70130844       5.54804678       5.93315138      -0.01180726       0.21713810       0.10940821
6
Lattice="-0.366274054 3.456445401 3.831376201 3.858756858 0.289744319 3.929192645 4.055342375 3.704342119 0.201357796" Properties=species:S:1:pos:R:3:forces:R:3 batch_id=T generation=8 composition=V6 config_type=C15_aa source_path=V-Cr-Ti-W-Zr/Fixed_Engrads/vcrtiwzr_fin_engrads/job_gen_6-2024-12-23/V/V6_C15_idx_3074 temperature=T date_processed=2025-01-03T17:40:30.777447 structure_type=T structure_index=3074 adversarial_step=T structure_id=8383 energy=-50.18490142822266 stress="0.1923120684697985 0.007595024070394924 -0.004716377646446307 0.007595024070394924 0.13768824056978776 0.0016794091020105341 -0.004716377646446307 0.0016794091020105341 0.15079514759075932" calculation_info="_JSON {\"calculation_id\": 8383, \"calculator\": \"vasp\", \"calculation_source_path\": \"\", \"error\": null, \"status\": \"completed\", \"gpu_count\": null, \"parameters\": {}, \"date_started\": null, \"gpu_memory_mb\": null, \"model_version\": null, \"date_completed\": null, \"runtime_seconds\": null}" parent_id=8383 step=10 variance=0.0830688327550888 loss=0.0830688327550888 pbc="T T T"
V        0.98436214       0.97231832       0.95407970       0.00061147      -0.09993022       0.15193534
V        2.91765707       1.11757814       2.98427861      -0.03383280      -0.07983523      -0.25267941
V        3.01304549       2.82535349       1.05387088      -0.03475719      -0.16978917       0.17093736
V        0.80220871       2.70287082       2.95277613       0.10110193      -0.17800692      -0.28991312
V        3.81562727       3.68401950       3.93729634      -0.02010745       0.30036160       0.10672462
V        5.70324885       5.54617348       5.93144428      -0.01301600       0.22719988       0.11299518
6
Lattice="-0.366274054 3.456445401 3.831376201 3.858756858 0.289744319 3.929192645 4.055342375 3.704342119 0.201357796" Properties=species:S:1:pos:R:3:forces:R:3 batch_id=T generation=8 composition=V6 config_type=C15_aa source_path=V-Cr-Ti-W-Zr/Fixed_Engrads/vcrtiwzr_fin_engrads/job_gen_6-2024-12-23/V/V6_C15_idx_3074 temperature=T date_processed=2025-01-03T17:40:30.777447 structure_type=T structure_index=3074 adversarial_step=T structure_id=8383 energy=-50.18178253173828 stress="0.1923120684697985 0.007595024070394924 -0.004716377646446307 0.007595024070394924 0.13768824056978776 0.0016794091020105341 -0.004716377646446307 0.0016794091020105341 0.15079514759075932" calculation_info="_JSON {\"calculation_id\": 8383, \"calculator\": \"vasp\", \"calculation_source_path\": \"\", \"error\": null, \"status\": \"completed\", \"gpu_count\": null, \"parameters\": {}, \"date_started\": null, \"gpu_memory_mb\": null, \"model_version\": null, \"date_completed\": null, \"runtime_seconds\": null}" parent_id=8383 step=11 variance=0.08249551802873611 loss=0.08249551802873611 pbc="T T T"
V        0.98595281       0.97391282       0.95251827       0.00074804      -0.10279818       0.15693171
V        2.91969982       1.11921263       2.98375636      -0.03547199      -0.08324156      -0.25564858
V        3.01473536       2.82704213       1.05217113      -0.03621300      -0.17512539       0.17532018
V        0.80388929       2.70477320       2.95446693       0.10642438      -0.18647589      -0.30264515
V        3.81730339       3.68239057       3.93538005      -0.02130091       0.31148610       0.11008240
V        5.70499273       5.54449443       5.92992425      -0.01418643       0.23615487       0.11595943
6
Lattice="-0.366274054 3.456445401 3.831376201 3.858756858 0.289744319 3.929192645 4.055342375 3.704342119 0.201357796" Properties=species:S:1:pos:R:3:forces:R:3 batch_id=T generation=8 composition=V6 config_type=C15_aa source_path=V-Cr-Ti-W-Zr/Fixed_Engrads/vcrtiwzr_fin_engrads/job_gen_6-2024-12-23/V/V6_C15_idx_3074 temperature=T date_processed=2025-01-03T17:40:30.777447 structure_type=T structure_index=3074 adversarial_step=T structure_id=8383 energy=-50.178948974609376 stress="0.1923120684697985 0.007595024070394924 -0.004716377646446307 0.007595024070394924 0.13768824056978776 0.0016794091020105341 -0.004716377646446307 0.0016794091020105341 0.15079514759075932" calculation_info="_JSON {\"calculation_id\": 8383, \"calculator\": \"vasp\", \"calculation_source_path\": \"\", \"error\": null, \"status\": \"completed\", \"gpu_count\": null, \"parameters\": {}, \"date_started\": null, \"gpu_memory_mb\": null, \"model_version\": null, \"date_completed\": null, \"runtime_seconds\": null}" parent_id=8383 step=12 variance=0.08219125866889954 loss=0.08219125866889954 pbc="T T T"
V        0.98737631       0.97533873       0.95113393       0.00082987      -0.10524397       0.16116612
V        2.92156865       1.12067763       2.98299719      -0.03690571      -0.08644931      -0.25695300
V        3.01625480       2.82856059       1.05064335      -0.03750055      -0.17961819       0.17872779
V        0.80539834       2.70651001       2.95598785       0.11139462      -0.19430046      -0.31429791
V        3.81880995       3.68092974       3.93363514      -0.02248272       0.32144123       0.11296765
V        5.70656557       5.54298455       5.92856650      -0.01533559       0.24417071       0.11838932
6
Lattice="-0.366274054 3.456445401 3.831376201 3.858756858 0.289744319 3.929192645 4.055342375 3.704342119 0.201357796" Properties=species:S:1:pos:R:3:forces:R:3 batch_id=T generation=8 composition=V6 config_type=C15_aa source_path=V-Cr-Ti-W-Zr/Fixed_Engrads/vcrtiwzr_fin_engrads/job_gen_6-2024-12-23/V/V6_C15_idx_3074 temperature=T date_processed=2025-01-03T17:40:30.777447 structure_type=T structure_index=3074 adversarial_step=T structure_id=8383 energy=-50.17639312744141 stress="0.1923120684697985 0.007595024070394924 -0.004716377646446307 0.007595024070394924 0.13768824056978776 0.0016794091020105341 -0.004716377646446307 0.0016794091020105341 0.15079514759075932" calculation_info="_JSON {\"calculation_id\": 8383, \"calculator\": \"vasp\", \"calculation_source_path\": \"\", \"error\": null, \"status\": \"completed\", \"gpu_count\": null, \"parameters\": {}, \"date_started\": null, \"gpu_memory_mb\": null, \"model_version\": null, \"date_completed\": null, \"runtime_seconds\": null}" parent_id=8383 step=13 variance=0.08212118595838547 loss=0.08212118595838547 pbc="T T T"
V        0.98865329       0.97661677       0.94990540       0.00085124      -0.10732906       0.16470964
V        2.92328445       1.12199338       2.98201615      -0.03813625      -0.08951195      -0.25671354
V        3.01762458       2.82992971       1.04926672      -0.03863421      -0.18335390       0.18124263
V        0.80675671       2.70810203       2.95735967       0.11605118      -0.20155892      -0.32500762
V        3.82016766       3.67961643       3.93204157      -0.02366506       0.33037335       0.11543347
V        5.70798795       5.54162310       5.92735102      -0.01646679       0.25138050       0.12033539
6
Lattice="-0.366274054 3.456445401 3.831376201 3.858756858 0.289744319 3.929192645 4.055342375 3.704342119 0.201357796" Properties=species:S:1:pos:R:3:forces:R:3 batch_id=T generation=8 composition=V6 config_type=C15_aa source_path=V-Cr-Ti-W-Zr/Fixed_Engrads/vcrtiwzr_fin_engrads/job_gen_6-2024-12-23/V/V6_C15_idx_3074 temperature=T date_processed=2025-01-03T17:40:30.777447 structure_type=T structure_index=3074 adversarial_step=T structure_id=8383 energy=-50.17409896850586 stress="0.1923120684697985 0.007595024070394924 -0.004716377646446307 0.007595024070394924 0.13768824056978776 0.0016794091020105341 -0.004716377646446307 0.0016794091020105341 0.15079514759075932" calculation_info="_JSON {\"calculation_id\": 8383, \"calculator\": \"vasp\", \"calculation_source_path\": \"\", \"error\": null, \"status\": \"completed\", \"gpu_count\": null, \"parameters\": {}, \"date_started\": null, \"gpu_memory_mb\": null, \"model_version\": null, \"date_completed\": null, \"runtime_seconds\": null}" parent_id=8383 step=14 variance=0.08226536959409714 loss=0.08226536959409714 pbc="T T T"
V        0.98980090       0.97776414       0.94881513       0.00080932      -0.10910577       0.16762915
V        2.92486411       1.12317610       2.98081565      -0.03916421      -0.09247564      -0.25501293
V        3.01886214       2.83116683       1.04802388      -0.03962896      -0.18639573       0.18291785
V        0.80798172       2.70956618       2.95859970       0.12042953      -0.20831990      -0.33490798
V        3.82139368       3.67843342       3.93058180      -0.02485328       0.33839783       0.11752848
V        5.70927757       5.54039291       5.92626113      -0.01759243       0.25789925       0.12184542
6
Lattice="-0.366274054 3.456445401 3.831376201 3.858756858 0.289744319 3.929192645 4.055342375 3.704342119 0.201357796" Properties=species:S:1:pos:R:3:forces:R:3 batch_id=T generation=8 composition=V6 config_type=C15_aa source_path=V-Cr-Ti-W-Zr/Fixed_Engrads/vcrtiwzr_fin_engrads/job_gen_6-2024-12-23/V/V6_C15_idx_3074 temperature=T date_processed=2025-01-03T17:40:30.777447 structure_type=T structure_index=3074 adversarial_step=T structure_id=8383 energy=-50.17204666137695 stress="0.1923120684697985 0.007595024070394924 -0.004716377646446307 0.007595024070394924 0.13768824056978776 0.0016794091020105341 -0.004716377646446307 0.0016794091020105341 0.15079514759075932" calculation_info="_JSON {\"calculation_id\": 8383, \"calculator\": \"vasp\", \"calculation_source_path\": \"\", \"error\": null, \"status\": \"completed\", \"gpu_count\": null, \"parameters\": {}, \"date_started\": null, \"gpu_memory_mb\": null, \"model_version\": null, \"date_completed\": null, \"runtime_seconds\": null}" parent_id=8383 step=15 variance=0.08261210471391678 loss=0.08261210471391678 pbc="T T T"
V        0.99083335       0.97879539       0.94784834       0.00070426      -0.11060715       0.16997406
V        2.92632306       1.12424042       2.97940559      -0.04000092      -0.09536418      -0.25193611
V        3.01998220       2.83228660       1.04689987      -0.04049831      -0.18881606       0.18382278
V        0.80908814       2.71091752       2.95972266       0.12456241      -0.21464467      -0.34409785
V        3.82250304       3.67736619       3.92924159      -0.02605115       0.34561735       0.11927996
V        5.71044911       5.53927934       5.92528257      -0.01871634       0.26381475       0.12295713
6