2
Lattice="3.013764273 -0.204813379 -0.635579783 -0.495777408 2.836401624 0.340714856 -0.367607909 -0.04736912 3.118686961" Properties=species:S:1:pos:R:3:forces:R:3 generation=7 config_type=bcc_distorted source_path=/home/myless/Calc_VASP/MRS/job_gen_7-2025-04-10/Zr/Zr2_bcc_distorted_idx_2538 formula_string=Zr2 composition_str=Zr2 structure_index=2538 date_added_to_db=2025-04-14T00:23:46.676448 structure_id=23739 energy=-9.693075 stress="-0.9420213666870154 -0.17980708634741804 -0.38161031191100003 -0.17980708634741804 -1.0349406791194142 -0.10008746721065623 -0.38161031191100003 -0.10008746721065623 -0.9570689211744614" calculation_info="_JSON {\"calculation_id\": 23734, \"calculator\": \"vasp\", \"calculation_source_path\": \"/home/myless/Calc_VASP/MRS/job_gen_7-2025-04-10/Zr/Zr2_bcc_distorted_idx_2538\", \"nbands\": 16, \"parser\": \"ase_outcar\", \"potcar\": \"PAW_PBE Zr_sv 04Jan2005\", \"kpoints\": [16, 17, 15], \"date_run\": \"2025.03.12  22:05:20\", \"vasp_version\": \"vasp.6.4.2 20Jul23\", \"resources_used\": {\"nodes\": 1, \"mpi_ranks\": 4, \"gpus_detected\": true, \"threads_per_rank\": 8}, \"calculation_type\": \"static\"}" pbc="T T T"
Zr       0.00000000       0.00000000       0.00000000       0.00000000       0.00000000       0.00000000
Zr       1.07519000       1.29211000       1.41191000       0.00000000       0.00000000       0.00000000
2
Lattice="3.013764273 -0.204813379 -0.635579783 -0.495777408 2.836401624 0.340714856 -0.367607909 -0.04736912 3.118686961" Properties=species:S:1:pos:R:3:forces:R:3 generation=8 config_type=bcc_distorted_aa source_path=/home/myless/Calc_VASP/MRS/job_gen_7-2025-04-10/Zr/Zr2_bcc_distorted_idx_2538 formula_string=Zr2 composition_str=Zr2 structure_index=2538 date_added_to_db=2025-04-14T00:23:46.676448 structure_id=23739 energy=-9.684983253479004 stress="-0.9420213666870154 -0.17980708634741804 -0.38161031191100003 -0.17980708634741804 -1.0349406791194142 -0.10008746721065623 -0.38161031191100003 -0.10008746721065623 -0.9570689211744614" calculation_info="_JSON {\"calculation_id\": 23734, \"calculator\": \"vasp\", \"calculation_source_path\": \"/home/myless/Calc_VASP/MRS/job_gen_7-2025-04-10/Zr/Zr2_bcc_distorted_idx_2538\", \"nbands\": 16, \"parser\": \"ase_outcar\", \"potcar\": \"PAW_PBE Zr_sv 04Jan2005\", \"kpoints\": [16, 17, 15], \"date_run\": \"2025.03.12  22:05:20\", \"vasp_version\": \"vasp.6.4.2 20Jul23\", \"resources_used\": {\"nodes\": 1, \"mpi_ranks\": 4, \"gpus_detected\": true, \"threads_per_rank\": 8}, \"calculation_type\": \"static\"}" parent_id=23739 step=0 variance=0.35627415776252747 loss=0.35627415776252747 pbc="T T T"
Zr       0.00000000       0.00000000       0.00000000      -0.00000155       0.00000513      -0.00000553
Zr       1.07519000       1.29211000       1.41191000       0.00000137      -0.00000522       0.00000558
2
Lattice="3.013764273 -0.204813379 -0.635579783 -0.495777408 2.836401624 0.340714856 -0.367607909 -0.04736912 3.118686961" Properties=species:S:1:pos:R:3:forces:R:3 generation=8 config_type=bcc_distorted_aa source_path=/home/myless/Calc_VASP/MRS/job_gen_7-2025-04-10/Zr/Zr2_bcc_distorted_idx_2538 formula_string=Zr2 composition_str=Zr2 structure_index=2538 date_added_to_db=2025-04-14T00:23:46.676448 structure_id=23739 energy=-9.684983253479004 stress="-0.9420213666870154 -0.17980708634741804 -0.38161031191100003 -0.17980708634741804 -1.0349406791194142 -0.10008746721065623 -0.38161031191100003 -0.10008746721065623 -0.9570689211744614" calculation_info="_JSON {\"calculation_id\": 23734, \"calculator\": \"vasp\", \"calculation_source_path\": \"/home/myless/Calc_VASP/MRS/job_gen_7-2025-04-10/Zr/Zr2_bcc_distorted_idx_2538\", \"nbands\": 16, \"parser\": \"ase_outcar\", \"potcar\": \"PAW_PBE Zr_sv 04Jan2005\", \"kpoints\": [16, 17, 15], \"date_run\": \"2025.03.12  22:05:20\", \"vasp_version\": \"vasp.6.4.2 20Jul23\", \"resources_used\": {\"nodes\": 1, \"mpi_ranks\": 4, \"gpus_detected\": true, \"threads_per_rank\": 8}, \"calculation_type\": \"static\"}" parent_id=23739 step=1 variance=0.5626118183135986 loss=0.5626118183135986 pbc="T T T"
Zr       0.01000000       0.01000000       0.01000000       0.00000044       0.00000439      -0.00000510
Zr       1.08519000       1.30211000       1.42191000      -0.00000030      -0.00000422       0.00000521
2
Lattice="3.013764273 -0.204813379 -0.635579783 -0.495777408 2.836401624 0.340714856 -0.367607909 -0.04736912 3.118686961" Properties=species:S:1:pos:R:3:forces:R:3 generation=8 config_type=bcc_distorted_aa source_path=/home/myless/Calc_VASP/MRS/job_gen_7-2025-04-10/Zr/Zr2_bcc_distorted_idx_2538 formula_string=Zr2 composition_str=Zr2 structure_index=2538 date_added_to_db=2025-04-14T00:23:46.676448 structure_id=23739 energy=-9.68498363494873 stress="-0.9420213666870154 -0.17980708634741804 -0.38161031191100003 -0.17980708634741804 -1.0349406791194142 -0.10008746721065623 -0.38161031191100003 -0.10008746721065623 -0.9570689211744614" calculation_info="_JSON {\"calculation_id\": 23734, \"calculator\": \"vasp\", \"calculation_source_path\": \"/home/myless/Calc_VASP/MRS/job_gen_7-2025-04-10/Zr/Zr2_bcc_distorted_idx_2538\", \"nbands\": 16, \"parser\": \"ase_outcar\", \"potcar\": \"PAW_PBE Zr_sv 04Jan2005\", \"kpoints\": [16, 17, 15], \"date_run\": \"2025.03.12  22:05:20\", \"vasp_version\": \"vasp.6.4.2 20Jul23\", \"resources_used\": {\"nodes\": 1, \"mpi_ranks\": 4, \"gpus_detected\": true, \"threads_per_rank\": 8}, \"calculation_type\": \"static\"}" parent_id=23739 step=2 variance=0.269720196723938 loss=0.269720196723938 pbc="T T T"
Zr       0.01813534       0.00327581       0.01760398       0.00012147      -0.00224618       0.00046965
Zr       1.09343906       1.29504599       1.42948569      -0.00012161       0.00224614      -0.00046927
2
Lattice="3.013764273 -0.204813379 -0.635579783 -0.495777408 2.836401624 0.340714856 -0.367607909 -0.04736912 3.118686961" Properties=species:S:1:pos:R:3:forces:R:3 generation=8 config_type=bcc_distorted_aa source_path=/home/myless/Calc_VASP/MRS/job_gen_7-2025-04-10/Zr/Zr2_bcc_distorted_idx_2538 formula_string=Zr2 composition_str=Zr2 structure_index=2538 date_added_to_db=2025-04-14T00:23:46.676448 structure_id=23739 energy=-9.684592056274415 stress="-0.9420213666870154 -0.17980708634741804 -0.38161031191100003 -0.17980708634741804 -1.0349406791194142 -0.10008746721065623 -0.38161031191100003 -0.10008746721065623 -0.9570689211744614" calculation_info="_JSON {\"calculation_id\": 23734, \"calculator\": \"vasp\", \"calculation_source_path\": \"/home/myless/Calc_VASP/MRS/job_gen_7-2025-04-10/Zr/Zr2_bcc_distorted_idx_2538\", \"nbands\": 16, \"parser\": \"ase_outcar\", \"potcar\": \"PAW_PBE Zr_sv 04Jan2005\", \"kpoints\": [16, 17, 15], \"date_run\": \"2025.03.12  22:05:20\", \"vasp_version\": \"vasp.6.4.2 20Jul23\", \"resources_used\": {\"nodes\": 1, \"mpi_ranks\": 4, \"gpus_detected\": true, \"threads_per_rank\": 8}, \"calculation_type\": \"static\"}" parent_id=23739 step=3 variance=0.6338127851486206 loss=0.6338127851486206 pbc="T T T"
Zr       0.02661895      -0.00120370       0.02619487      -0.05202913      -0.01419646      -0.06245949
Zr       1.09720523       1.28863495       1.42996865       0.05202925       0.01419639       0.06245950
2
Lattice="3.013764273 -0.204813379 -0.635579783 -0.495777408 2.836401624 0.340714856 -0.367607909 -0.04736912 3.118686961" Properties=species:S:1:pos:R:3:forces:R:3 generation=8 config_type=bcc_distorted_aa source_path=/home/myless/Calc_VASP/MRS/job_gen_7-2025-04-10/Zr/Zr2_bcc_distorted_idx_2538 formula_string=Zr2 composition_str=Zr2 structure_index=2538 date_added_to_db=2025-04-14T00:23:46.676448 structure_id=23739 energy=-9.683694648742676 stress="-0.9420213666870154 -0.17980708634741804 -0.38161031191100003 -0.17980708634741804 -1.0349406791194142 -0.10008746721065623 -0.38161031191100003 -0.10008746721065623 -0.9570689211744614" calculation_info="_JSON {\"calculation_id\": 23734, \"calculator\": \"vasp\", \"calculation_source_path\": \"/home/myless/Calc_VASP/MRS/job_gen_7-2025-04-10/Zr/Zr2_bcc_distorted_idx_2538\", \"nbands\": 16, \"parser\": \"ase_outcar\", \"potcar\": \"PAW_PBE Zr_sv 04Jan2005\", \"kpoints\": [16, 17, 15], \"date_run\": \"2025.03.12  22:05:20\", \"vasp_version\": \"vasp.6.4.2 20Jul23\", \"resources_used\": {\"nodes\": 1, \"mpi_ranks\": 4, \"gpus_detected\": true, \"threads_per_rank\": 8}, \"calculation_type\": \"static\"}" parent_id=23739 step=4 variance=0.6319347620010376 loss=0.6319347620010376 pbc="T T T"
Zr       0.03356548      -0.00482652       0.03322472      -0.09468272      -0.02464774      -0.11376935
Zr       1.10029223       1.28333688       1.43037063       0.09468285       0.02464784       0.11376977
2
Lattice="3.013764273 -0.204813379 -0.635579783 -0.495777408 2.836401624 0.340714856 -0.367607909 -0.04736912 3.118686961" Properties=species:S:1:pos:R:3:forces:R:3 generation=8 config_type=bcc_distorted_aa source_path=/home/myless/Calc_VASP/MRS/job_gen_7-2025-04-10/Zr/Zr2_bcc_distorted_idx_2538 formula_string=Zr2 composition_str=Zr2 structure_index=2538 date_added_to_db=2025-04-14T00:23:46.676448 structure_id=23739 energy=-9.682525634765625 stress="-0.9420213666870154 -0.17980708634741804 -0.38161031191100003 -0.17980708634741804 -1.0349406791194142 -0.10008746721065623 -0.38161031191100003 -0.10008746721065623 -0.9570689211744614" calculation_info="_JSON {\"calculation_id\": 23734, \"calculator\": \"vasp\", \"calculation_source_path\": \"/home/myless/Calc_VASP/MRS/job_gen_7-2025-04-10/Zr/Zr2_bcc_distorted_idx_2538\", \"nbands\": 16, \"parser\": \"ase_outcar\", \"potcar\": \"PAW_PBE Zr_sv 04Jan2005\", \"kpoints\": [16, 17, 15], \"date_run\": \"2025.03.12  22:05:20\", \"vasp_version\": \"vasp.6.4.2 20Jul23\", \"resources_used\": {\"nodes\": 1, \"mpi_ranks\": 4, \"gpus_detected\": true, \"threads_per_rank\": 8}, \"calculation_type\": \"static\"}" parent_id=23739 step=5 variance=0.6313567161560059 loss=0.6313567161560059 pbc="T T T"
Zr       0.03943567      -0.00786380       0.03916324      -0.13064864      -0.03385534      -0.15694180
Zr       1.10290267       1.27883496       1.43071389       0.13064854       0.03385524       0.15694182
2
Lattice="3.013764273 -0.204813379 -0.635579783 -0.495777408 2.836401624 0.340714856 -0.367607909 -0.04736912 3.118686961" Properties=species:S:1:pos:R:3:forces:R:3 generation=8 config_type=bcc_distorted_aa source_path=/home/myless/Calc_VASP/MRS/job_gen_7-2025-04-10/Zr/Zr2_bcc_distorted_idx_2538 formula_string=Zr2 composition_str=Zr2 structure_index=2538 date_added_to_db=2025-04-14T00:23:46.676448 structure_id=23739 energy=-9.681221961975098 stress="-0.9420213666870154 -0.17980708634741804 -0.38161031191100003 -0.17980708634741804 -1.0349406791194142 -0.10008746721065623 -0.38161031191100003 -0.10008746721065623 -0.9570689211744614" calculation_info="_JSON {\"calculation_id\": 23734, \"calculator\": \"vasp\", \"calculation_source_path\": \"/home/myless/Calc_VASP/MRS/job_gen_7-2025-04-10/Zr/Zr2_bcc_distorted_idx_2538\", \"nbands\": 16, \"parser\": \"ase_outcar\", \"potcar\": \"PAW_PBE Zr_sv 04Jan2005\", \"kpoints\": [16, 17, 15], \"date_run\": \"2025.03.12  22:05:20\", \"vasp_version\": \"vasp.6.4.2 20Jul23\", \"resources_used\": {\"nodes\": 1, \"mpi_ranks\": 4, \"gpus_detected\": true, \"threads_per_rank\": 8}, \"calculation_type\": \"static\"}" parent_id=23739 step=6 variance=0.6310281753540039 loss=0.6310281753540039 pbc="T T T"
Zr       0.04449411      -0.01046420       0.04427914      -0.16157350      -0.04205981      -0.19399132
Zr       1.10515349       1.27493834       1.43101208       0.16157363       0.04205973       0.19399133
2
Lattice="3.013764273 -0.204813379 -0.635579783 -0.495777408 2.836401624 0.340714856 -0.367607909 -0.04736912 3.118686961" Properties=species:S:1:pos:R:3:forces:R:3 generation=8 config_type=bcc_distorted_aa source_path=/home/myless/Calc_VASP/MRS/job_gen_7-2025-04-10/Zr/Zr2_bcc_distorted_idx_2538 formula_string=Zr2 composition_str=Zr2 structure_index=2538 date_added_to_db=2025-04-14T00:23:46.676448 structure_id=23739 energy=-9.679855155944825 stress="-0.9420213666870154 -0.17980708634741804 -0.38161031191100003 -0.17980708634741804 -1.0349406791194142 -0.10008746721065623 -0.38161031191100003 -0.10008746721065623 -0.9570689211744614" calculation_info="_JSON {\"calculation_id\": 23734, \"calculator\": \"vasp\", \"calculation_source_path\": \"/home/myless/Calc_VASP/MRS/job_gen_7-2025-04-10/Zr/Zr2_bcc_distorted_idx_2538\", \"nbands\": 16, \"parser\": \"ase_outcar\", \"potcar\": \"PAW_PBE Zr_sv 04Jan2005\", \"kpoints\": [16, 17, 15], \"date_run\": \"2025.03.12  22:05:20\", \"vasp_version\": \"vasp.6.4.2 20Jul23\", \"resources_used\": {\"nodes\": 1, \"mpi_ranks\": 4, \"gpus_detected\": true, \"threads_per_rank\": 8}, \"calculation_type\": \"static\"}" parent_id=23739 step=7 variance=0.6307801604270935 loss=0.6307801604270935 pbc="T T T"
Zr       0.04891095      -0.01272176       0.04874507      -0.18851617      -0.04944781      -0.22621116
Zr       1.10711991       1.27152271       1.43127452       0.18851626       0.04944779       0.22621110
2
Lattice="3.013764273 -0.204813379 -0.635579783 -0.495777408 2.836401624 0.340714856 -0.367607909 -0.04736912 3.118686961" Properties=species:S:1:pos:R:3:forces:R:3 generation=8 config_type=bcc_distorted_aa source_path=/home/myless/Calc_VASP/MRS/job_gen_7-2025-04-10/Zr/Zr2_bcc_distorted_idx_2538 formula_string=Zr2 composition_str=Zr2 structure_index=2538 date_added_to_db=2025-04-14T00:23:46.676448 structure_id=23739 energy=-9.67847900390625 stress="-0.9420213666870154 -0.17980708634741804 -0.38161031191100003 -0.17980708634741804 -1.0349406791194142 -0.10008746721065623 -0.38161031191100003 -0.10008746721065623 -0.9570689211744614" calculation_info="_JSON {\"calculation_id\": 23734, \"calculator\": \"vasp\", \"calculation_source_path\": \"/home/myless/Calc_VASP/MRS/job_gen_7-2025-04-10/Zr/Zr2_bcc_distorted_idx_2538\", \"nbands\": 16, \"parser\": \"ase_outcar\", \"potcar\": \"PAW_PBE Zr_sv 04Jan2005\", \"kpoints\": [16, 17, 15], \"date_run\": \"2025.03.12  22:05:20\", \"vasp_version\": \"vasp.6.4.2 20Jul23\", \"resources_used\": {\"nodes\": 1, \"mpi_ranks\": 4, \"gpus_detected\": true, \"threads_per_rank\": 8}, \"calculation_type\": \"static\"}" parent_id=23739 step=8 variance=0.6305751800537109 loss=0.6305751800537109 pbc="T T T"
Zr       0.05280399      -0.01470084       0.05268047      -0.21221665      -0.05615157      -0.25450593
Zr       1.10885409       1.26850104       1.43150753       0.21221678       0.05615136       0.25450590
2
Lattice="3.013764273 -0.204813379 -0.635579783 -0.495777408 2.836401624 0.340714856 -0.367607909 -0.04736912 3.118686961" Properties=species:S:1:pos:R:3:forces:R:3 generation=8 config_type=bcc_distorted_aa source_path=/home/myless/Calc_VASP/MRS/job_gen_7-2025-04-10/Zr/Zr2_bcc_distorted_idx_2538 formula_string=Zr2 composition_str=Zr2 structure_index=2538 date_added_to_db=2025-04-14T00:23:46.676448 structure_id=23739 energy=-9.677119636535645 stress="-0.9420213666870154 -0.17980708634741804 -0.38161031191100003 -0.17980708634741804 -1.0349406791194142 -0.10008746721065623 -0.38161031191100003 -0.10008746721065623 -0.9570689211744614" calculation_info="_JSON {\"calculation_id\": 23734, \"calculator\": \"vasp\", \"calculation_source_path\": \"/home/myless/Calc_VASP/MRS/job_gen_7-2025-04-10/Zr/Zr2_bcc_distorted_idx_2538\", \"nbands\": 16, \"parser\": \"ase_outcar\", \"potcar\": \"PAW_PBE Zr_sv 04Jan2005\", \"kpoints\": [16, 17, 15], \"date_run\": \"2025.03.12  22:05:20\", \"vasp_version\": \"vasp.6.4.2 20Jul23\", \"resources_used\": {\"nodes\": 1, \"mpi_ranks\": 4, \"gpus_detected\": true, \"threads_per_rank\": 8}, \"calculation_type\": \"static\"}" parent_id=23739 step=9 variance=0.6303887367248535 loss=0.6303887367248535 pbc="T T T"
Zr       0.05625941      -0.01644824       0.05617265      -0.23322436      -0.06227690      -0.27954042
Zr       1.11039417       1.26580925       1.43171577       0.23322439       0.06227688       0.27954072
2
Lattice="3.013764273 -0.204813379 -0.635579783 -0.495777408 2.836401624 0.340714856 -0.367607909 -0.04736912 3.118686961" Properties=species:S:1:pos:R:3:forces:R:3 generation=8 config_type=bcc_distorted_aa source_path=/home/myless/Calc_VASP/MRS/job_gen_7-2025-04-10/Zr/Zr2_bcc_distorted_idx_2538 formula_string=Zr2 composition_str=Zr2 structure_index=2538 date_added_to_db=2025-04-14T00:23:46.676448 structure_id=23739 energy=-9.675798225402833 stress="-0.9420213666870154 -0.17980708634741804 -0.38161031191100003 -0.17980708634741804 -1.0349406791194142 -0.10008746721065623 -0.38161031191100003 -0.10008746721065623 -0.9570689211744614" calculation_info="_JSON {\"calculation_id\": 23734, \"calculator\": \"vasp\", \"calculation_source_path\": \"/home/myless/Calc_VASP/MRS/job_gen_7-2025-04-10/Zr/Zr2_bcc_distorted_idx_2538\", \"nbands\": 16, \"parser\": \"ase_outcar\", \"potcar\": \"PAW_PBE Zr_sv 04Jan2005\", \"kpoints\": [16, 17, 15], \"date_run\": \"2025.03.12  22:05:20\", \"vasp_version\": \"vasp.6.4.2 20Jul23\", \"resources_used\": {\"nodes\": 1, \"mpi_ranks\": 4, \"gpus_detected\": true, \"threads_per_rank\": 8}, \"calculation_type\": \"static\"}" parent_id=23739 step=10 variance=0.630221426486969 loss=0.630221426486969 pbc="T T T"
Zr       0.05934270      -0.01799932       0.05928805      -0.25194392      -0.06789737      -0.30181596
Zr       1.11176927       1.26339866       1.43190292       0.25194377       0.06789733       0.30181602
2
Lattice="3.013764273 -0.204813379 -0.635579783 -0.495777408 2.836401624 0.340714856 -0.367607909 -0.04736912 3.118686961" Properties=species:S:1:pos:R:3:forces:R:3 generation=8 config_type=bcc_distorted_aa source_path=/home/myless/Calc_VASP/MRS/job_gen_7-2025-04-10/Zr/Zr2_bcc_distorted_idx_2538 formula_string=Zr2 composition_str=Zr2 structure_index=2538 date_added_to_db=2025-04-14T00:23:46.676448 structure_id=23739 energy=-9.674526977539063 stress="-0.9420213666870154 -0.17980708634741804 -0.38161031191100003 -0.17980708634741804 -1.0349406791194142 -0.10008746721065623 -0.38161031191100003 -0.10008746721065623 -0.9570689211744614" calculation_info="_JSON {\"calculation_id\": 23734, \"calculator\": \"vasp\", \"calculation_source_path\": \"/home/myless/Calc_VASP/MRS/job_gen_7-2025-04-10/Zr/Zr2_bcc_distorted_idx_2538\", \"nbands\": 16, \"parser\": \"ase_outcar\", \"potcar\": \"PAW_PBE Zr_sv 04Jan2005\", \"kpoints\": [16, 17, 15], \"date_run\": \"2025.03.12  22:05:20\", \"vasp_version\": \"vasp.6.4.2 20Jul23\", \"resources_used\": {\"nodes\": 1, \"mpi_ranks\": 4, \"gpus_detected\": true, \"threads_per_rank\": 8}, \"calculation_type\": \"static\"}" parent_id=23739 step=11 variance=0.630079984664917 loss=0.630079984664917 pbc="T T T"
Zr       0.06210540      -0.01938148       0.06207884      -0.26870355      -0.07308067      -0.32172388
Zr       1.11300222       1.26123102       1.43207187       0.26870352       0.07308085       0.32172418
2
Lattice="3.013764273 -0.204813379 -0.635579783 -0.495777408 2.836401624 0.340714856 -0.367607909 -0.04736912 3.118686961" Properties=species:S:1:pos:R:3:forces:R:3 generation=8 config_type=bcc_distorted_aa source_path=/home/myless/Calc_VASP/MRS/job_gen_7-2025-04-10/Zr/Zr2_bcc_distorted_idx_2538 formula_string=Zr2 composition_str=Zr2 structure_index=2538 date_added_to_db=2025-04-14T00:23:46.676448 structure_id=23739 energy=-9.673314476013184 stress="-0.9420213666870154 -0.17980708634741804 -0.38161031191100003 -0.17980708634741804 -1.0349406791194142 -0.10008746721065623 -0.38161031191100003 -0.10008746721065623 -0.9570689211744614" calculation_info="_JSON {\"calculation_id\": 23734, \"calculator\": \"vasp\", \"calculation_source_path\": \"/home/myless/Calc_VASP/MRS/job_gen_7-2025-04-10/Zr/Zr2_bcc_distorted_idx_2538\", \"nbands\": 16, \"parser\": \"ase_outcar\", \"potcar\": \"PAW_PBE Zr_sv 04Jan2005\", \"kpoints\": [16, 17, 15], \"date_run\": \"2025.03.12  22:05:20\", \"vasp_version\": \"vasp.6.4.2 20Jul23\", \"resources_used\": {\"nodes\": 1, \"mpi_ranks\": 4, \"gpus_detected\": true, \"threads_per_rank\": 8}, \"calculation_type\": \"static\"}" parent_id=23739 step=12 variance=0.6299574375152588 loss=0.6299574375152588 pbc="T T T"
Zr       0.06458896      -0.02061705       0.06458701      -0.28376070      -0.07787297      -0.33958268
Zr       1.11411133       1.25927507       1.43222487       0.28376055       0.07787307       0.33958283
2
Lattice="3.013764273 -0.204813379 -0.635579783 -0.495777408 2.836401624 0.340714856 -0.367607909 -0.04736912 3.118686961" Properties=species:S:1:pos:R:3:forces:R:3 generation=8 config_type=bcc_distorted_aa source_path=/home/myless/Calc_VASP/MRS/job_gen_7-2025-04-10/Zr/Zr2_bcc_distorted_idx_2538 formula_string=Zr2 composition_str=Zr2 structure_index=2538 date_added_to_db=2025-04-14T00:23:46.676448 structure_id=23739 energy=-9.672165679931641 stress="-0.9420213666870154 -0.17980708634741804 -0.38161031191100003 -0.17980708634741804 -1.0349406791194142 -0.10008746721065623 -0.38161031191100003 -0.10008746721065623 -0.9570689211744614" calculation_info="_JSON {\"calculation_id\": 23734, \"calculator\": \"vasp\", \"calculation_source_path\": \"/home/myless/Calc_VASP/MRS/job_gen_7-2025-04-10/Zr/Zr2_bcc_distorted_idx_2538\", \"nbands\": 16, \"parser\": \"ase_outcar\", \"potcar\": \"PAW_PBE Zr_sv 04Jan2005\", \"kpoints\": [16, 17, 15], \"date_run\": \"2025.03.12  22:05:20\", \"vasp_version\": \"vasp.6.4.2 20Jul23\", \"resources_used\": {\"nodes\": 1, \"mpi_ranks\": 4, \"gpus_detected\": true, \"threads_per_rank\": 8}, \"calculation_type\": \"static\"}" parent_id=23739 step=13 variance=0.6298514604568481 loss=0.6298514604568481 pbc="T T T"
Zr       0.06682736      -0.02172420       0.06684704      -0.29733166      -0.08232261      -0.35564971
Zr       1.11511168       1.25750532       1.43236391       0.29733142       0.08232268       0.35564977
2
Lattice="3.013764273 -0.204813379 -0.635579783 -0.495777408 2.836401624 0.340714856 -0.367607909 -0.04736912 3.118686961" Properties=species:S:1:pos:R:3:forces:R:3 generation=8 config_type=bcc_distorted_aa source_path=/home/myless/Calc_VASP/MRS/job_gen_7-2025-04-10/Zr/Zr2_bcc_distorted_idx_2538 formula_string=Zr2 composition_str=Zr2 structure_index=2538 date_added_to_db=2025-04-14T00:23:46.676448 structure_id=23739 energy=-9.6710786819458 stress="-0.9420213666870154 -0.17980708634741804 -0.38161031191100003 -0.17980708634741804 -1.0349406791194142 -0.10008746721065623 -0.38161031191100003 -0.10008746721065623 -0.9570689211744614" calculation_info="_JSON {\"calculation_id\": 23734, \"calculator\": \"vasp\", \"calculation_source_path\": \"/home/myless/Calc_VASP/MRS/job_gen_7-2025-04-10/Zr/Zr2_bcc_distorted_idx_2538\", \"nbands\": 16, \"parser\": \"ase_outcar\", \"potcar\": \"PAW_PBE Zr_sv 04Jan2005\", \"kpoints\": [16, 17, 15], \"date_run\": \"2025.03.12  22:05:20\", \"vasp_version\": \"vasp.6.4.2 20Jul23\", \"resources_used\": {\"nodes\": 1, \"mpi_ranks\": 4, \"gpus_detected\": true, \"threads_per_rank\": 8}, \"calculation_type\": \"static\"}" parent_id=23739 step=14 variance=0.6297632455825806 loss=0.6297632455825806 pbc="T T T"
Zr       0.06884902      -0.02271802       0.06888773      -0.30958492      -0.08645391      -0.37013727
Zr       1.11601590       1.25590032       1.43249057       0.30958515       0.08645375       0.37013710
2
Lattice="3.013764273 -0.204813379 -0.635579783 -0.495777408 2.836401624 0.340714856 -0.367607909 -0.04736912 3.118686961" Properties=species:S:1:pos:R:3:forces:R:3 generation=8 config_type=bcc_distorted_aa source_path=/home/myless/Calc_VASP/MRS/job_gen_7-2025-04-10/Zr/Zr2_bcc_distorted_idx_2538 formula_string=Zr2 composition_str=Zr2 structure_index=2538 date_added_to_db=2025-04-14T00:23:46.676448 structure_id=23739 energy=-9.670058250427246 stress="-0.9420213666870154 -0.17980708634741804 -0.38161031191100003 -0.17980708634741804 -1.0349406791194142 -0.10008746721065623 -0.38161031191100003 -0.10008746721065623 -0.9570689211744614" calculation_info="_JSON {\"calculation_id\": 23734, \"calculator\": \"vasp\", \"calculation_source_path\": \"/home/myless/Calc_VASP/MRS/job_gen_7-2025-04-10/Zr/Zr2_bcc_distorted_idx_2538\", \"nbands\": 16, \"parser\": \"ase_outcar\", \"potcar\": \"PAW_PBE Zr_sv 04Jan2005\", \"kpoints\": [16, 17, 15], \"date_run\": \"2025.03.12  22:05:20\", \"vasp_version\": \"vasp.6.4.2 20Jul23\", \"resources_used\": {\"nodes\": 1, \"mpi_ranks\": 4, \"gpus_detected\": true, \"threads_per_rank\": 8}, \"calculation_type\": \"static\"}" parent_id=23739 step=15 variance=0.6296910643577576 loss=0.6296910643577576 pbc="T T T"
Zr       0.07067806      -0.02361127       0.07073352      -0.32067379      -0.09030633      -0.38322443
Zr       1.11683473       1.25444194       1.43260621       0.32067388       0.09030618       0.38322419
2
Lattice="3.013764273 -0.204813379 -0.635579783 -0.495777408 2.836401624 0.340714856 -0.367607909 -0.04736912 3.118686961" Properties=species:S:1:pos:R:3:forces:R:3 generation=8 config_type=bcc_distorted_aa source_path=/home/myless/Calc_VASP/MRS/job_gen_7-2025-04-10/Zr/Zr2_bcc_distorted_idx_2538 formula_string=Zr2 composition_str=Zr2 structure_index=2538 date_added_to_db=2025-04-14T00:23:46.676448 structure_id=23739 energy=-9.66910400390625 stress="-0.9420213666870154 -0.17980708634741804 -0.38161031191100003 -0.17980708634741804 -1.0349406791194142 -0.10008746721065623 -0.38161031191100003 -0.10008746721065623 -0.9570689211744614" calculation_info="_JSON {\"calculation_id\": 23734, \"calculator\": \"vasp\", \"calculation_source_path\": \"/home/myless/Calc_VASP/MRS/job_gen_7-2025-04-10/Zr/Zr2_bcc_distorted_idx_2538\", \"nbands\": 16, \"parser\": \"ase_outcar\", \"potcar\": \"PAW_PBE Zr_sv 04Jan2005\", \"kpoints\": [16, 17, 15], \"date_run\": \"2025.03.12  22:05:20\", \"vasp_version\": \"vasp.6.4.2 20Jul23\", \"resources_used\": {\"nodes\": 1, \"mpi_ranks\": 4, \"gpus_detected\": true, \"threads_per_rank\": 8}, \"calculation_type\": \"static\"}" parent_id=23739 step=16 variance=0.6296436786651611 loss=0.6296436786651611 pbc="T T T"
Zr       0.07233520      -0.02441482       0.07240536      -0.33071980      -0.09390073      -0.39506549
Zr       1.11757736       1.25311469       1.43271204       0.33071992       0.09390073       0.39506549
2
Lattice="3.013764273 -0.204813379 -0.635579783 -0.495777408 2.836401624 0.340714856 -0.367607909 -0.04736912 3.118686961" Properties=species:S:1:pos:R:3:forces:R:3 generation=8 config_type=bcc_distorted_aa source_path=/home/myless/Calc_VASP/MRS/job_gen_7-2025-04-10/Zr/Zr2_bcc_distorted_idx_2538 formula_string=Zr2 composition_str=Zr2 structure_index=2538 date_added_to_db=2025-04-14T00:23:46.676448 structure_id=23739 energy=-9.668210220336913 stress="-0.9420213666870154 -0.17980708634741804 -0.38161031191100003 -0.17980708634741804 -1.0349406791194142 -0.10008746721065623 -0.38161031191100003 -0.10008746721065623 -0.9570689211744614" calculation_info="_JSON {\"calculation_id\": 23734, \"calculator\": \"vasp\", \"calculation_source_path\": \"/home/myless/Calc_VASP/MRS/job_gen_7-2025-04-10/Zr/Zr2_bcc_distorted_idx_2538\", \"nbands\": 16, \"parser\": \"ase_outcar\", \"potcar\": \"PAW_PBE Zr_sv 04Jan2005\", \"kpoints\": [16, 17, 15], \"date_run\": \"2025.03.12  22:05:20\", \"vasp_version\": \"vasp.6.4.2 20Jul23\", \"resources_used\": {\"nodes\": 1, \"mpi_ranks\": 4, \"gpus_detected\": true, \"threads_per_rank\": 8}, \"calculation_type\": \"static\"}" parent_id=23739 step=17 variance=0.6296060681343079 loss=0.6296060681343079 pbc="T T T"
Zr       0.07383819      -0.02513815       0.07392123      -0.33984116      -0.09726274      -0.40579063
Zr       1.11825161       1.25190491       1.43280896       0.33984128       0.09726266       0.40579072
2
Lattice="3.013764273 -0.204813379 -0.635579783 -0.495777408 2.836401624 0.340714856 -0.367607909 -0.04736912 3.118686961" Properties=species:S:1:pos:R:3:forces:R:3 generation=8 config_type=bcc_distorted_aa source_path=/home/myless/Calc_VASP/MRS/job_gen_7-2025-04-10/Zr/Zr2_bcc_distorted_idx_2538 formula_string=Zr2 composition_str=Zr2 structure_index=2538 date_added_to_db=2025-04-14T00:23:46.676448 structure_id=23739 energy=-9.667378234863282 stress="-0.9420213666870154 -0.17980708634741804 -0.38161031191100003 -0.17980708634741804 -1.0349406791194142 -0.10008746721065623 -0.38161031191100003 -0.10008746721065623 -0.9570689211744614" calculation_info="_JSON {\"calculation_id\": 23734, \"calculator\": \"vasp\", \"calculation_source_path\": \"/home/myless/Calc_VASP/MRS/job_gen_7-2025-04-10/Zr/Zr2_bcc_distorted_idx_2538\", \"nbands\": 16, \"parser\": \"ase_outcar\", \"potcar\": \"PAW_PBE Zr_sv 04Jan2005\", \"kpoints\": [16, 17, 15], \"date_run\": \"2025.03.12  22:05:20\", \"vasp_version\": \"vasp.6.4.2 20Jul23\", \"resources_used\": {\"nodes\": 1, \"mpi_ranks\": 4, \"gpus_detected\": true, \"threads_per_rank\": 8}, \"calculation_type\": \"static\"}" parent_id=23739 step=18 variance=0.6295818090438843 loss=0.6295818090438843 pbc="T T T"
Zr       0.07520261      -0.02578952       0.07529695      -0.34812742      -0.10040610      -0.41551772
Zr       1.11886441       1.25080094       1.43289788       0.34812737       0.10040609       0.41551772
2