6
Lattice="-0.063779829 3.764503394 3.629304324 3.655960344 0.01329525 3.751234325 3.723216808 3.720309155 0.0056146" Properties=species:S:1:pos:R:3:forces:R:3 generation=6 composition=W6 config_type=C15 source_path=V-Cr-Ti-W-Zr/Fixed_Engrads/vcrtiwzr_fin_engrads/job_gen_6-2024-12-23/W/W6_C15_idx_3031 date_processed=2025-02-12T16:53:55.974980 structure_index=3031 structure_id=21683 energy=-74.95042 stress="0.02563556318746653 -0.002563749805529555 -0.0003823111584877272 -0.002563749805529555 0.027021509013396287 -0.005419177815529887 -0.0003823111584877272 -0.005419177815529887 0.022138077375195714" calculation_info="_JSON {\"calculation_id\": 21682, \"calculator\": \"vasp\", \"calculation_source_path\": \"\", \"error\": null, \"status\": \"completed\", \"gpu_count\": null, \"parameters\": {}, \"date_started\": null, \"gpu_memory_mb\": null, \"model_version\": null, \"date_completed\": null, \"runtime_seconds\": null}" pbc="T T T"
W        0.91442000       0.93726000       0.92327000       0.00000000       0.00000000       0.00000000
W        2.74240000       0.94391000       2.79889000       0.00000000       0.00000000       0.00000000
W        2.77603000       2.79742000       0.92608000       0.00000000       0.00000000       0.00000000
W        0.88253000       2.81952000       2.73792000       0.00000000       0.00000000       0.00000000
W        3.65770000       3.74905000       3.69308000       0.01641600       0.00198900       0.00933000
W        5.48655000       5.62358000       5.53961000      -0.01641600      -0.00198900      -0.00933000
6
Lattice="-0.063779829 3.764503394 3.629304324 3.655960344 0.01329525 3.751234325 3.723216808 3.720309155 0.0056146" Properties=species:S:1:pos:R:3:forces:R:3 generation=8 composition=W6 config_type=C15_aa source_path=V-Cr-Ti-W-Zr/Fixed_Engrads/vcrtiwzr_fin_engrads/job_gen_6-2024-12-23/W/W6_C15_idx_3031 date_processed=2025-02-12T16:53:55.974980 structure_index=3031 structure_id=21683 energy=-74.91090850830078 stress="0.02563556318746653 -0.002563749805529555 -0.0003823111584877272 -0.002563749805529555 0.027021509013396287 -0.005419177815529887 -0.0003823111584877272 -0.005419177815529887 0.022138077375195714" calculation_info="_JSON {\"calculation_id\": 21682, \"calculator\": \"vasp\", \"calculation_source_path\": \"\", \"error\": null, \"status\": \"completed\", \"gpu_count\": null, \"parameters\": {}, \"date_started\": null, \"gpu_memory_mb\": null, \"model_version\": null, \"date_completed\": null, \"runtime_seconds\": null}" parent_id=21683 step=0 variance=0.21233689785003662 loss=0.21233689785003662 pbc="T T T"
W        0.91442000       0.93726000       0.92327000       0.00009401       0.00008622       0.00004120
W        2.74240000       0.94391000       2.79889000      -0.00002280       0.00005047      -0.00006053
W        2.77603000       2.79742000       0.92608000       0.00000000      -0.00009949      -0.00001498
W        0.88253000       2.81952000       2.73792000       0.00002876      -0.00009291      -0.00000735
W        3.65770000       3.74905000       3.69308000       0.01010497       0.00119104       0.00634478
W        5.48655000       5.62358000       5.53961000      -0.01020494      -0.00113545      -0.00630299
6
Lattice="-0.063779829 3.764503394 3.629304324 3.655960344 0.01329525 3.751234325 3.723216808 3.720309155 0.0056146" Properties=species:S:1:pos:R:3:forces:R:3 generation=8 composition=W6 config_type=C15_aa source_path=V-Cr-Ti-W-Zr/Fixed_Engrads/vcrtiwzr_fin_engrads/job_gen_6-2024-12-23/W/W6_C15_idx_3031 date_processed=2025-02-12T16:53:55.974980 structure_index=3031 structure_id=21683 energy=-74.90695190429688 stress="0.02563556318746653 -0.002563749805529555 -0.0003823111584877272 -0.002563749805529555 0.027021509013396287 -0.005419177815529887 -0.0003823111584877272 -0.005419177815529887 0.022138077375195714" calculation_info="_JSON {\"calculation_id\": 21682, \"calculator\": \"vasp\", \"calculation_source_path\": \"\", \"error\": null, \"status\": \"completed\", \"gpu_count\": null, \"parameters\": {}, \"date_started\": null, \"gpu_memory_mb\": null, \"model_version\": null, \"date_completed\": null, \"runtime_seconds\": null}" parent_id=21683 step=1 variance=0.003849305445328355 loss=0.003849305445328355 pbc="T T T"
W        0.92442000       0.94726000       0.93327000      -0.02623352       0.03083074      -0.02561489
W        2.75240000       0.95391000       2.80889000      -0.02399489      -0.03214074      -0.02412794
W        2.78603000       2.80742000       0.93608000      -0.05477183      -0.00005892      -0.05598763
W        0.89253000       2.82952000       2.74792000      -0.05840138       0.00097092      -0.05736504
W        3.64770000       3.75905000       3.70308000       0.20443475       0.00157024      -0.02415732
W        5.49655000       5.63358000       5.52961000      -0.04103308      -0.00117226       0.18725285
6
Lattice="-0.063779829 3.764503394 3.629304324 3.655960344 0.01329525 3.751234325 3.723216808 3.720309155 0.0056146" Properties=species:S:1:pos:R:3:forces:R:3 generation=8 composition=W6 config_type=C15_aa source_path=V-Cr-Ti-W-Zr/Fixed_Engrads/vcrtiwzr_fin_engrads/job_gen_6-2024-12-23/W/W6_C15_idx_3031 date_processed=2025-02-12T16:53:55.974980 structure_index=3031 structure_id=21683 energy=-74.89998626708984 stress="0.02563556318746653 -0.002563749805529555 -0.0003823111584877272 -0.002563749805529555 0.027021509013396287 -0.005419177815529887 -0.0003823111584877272 -0.005419177815529887 0.022138077375195714" calculation_info="_JSON {\"calculation_id\": 21682, \"calculator\": \"vasp\", \"calculation_source_path\": \"\", \"error\": null, \"status\": \"completed\", \"gpu_count\": null, \"parameters\": {}, \"date_started\": null, \"gpu_memory_mb\": null, \"model_version\": null, \"date_completed\": null, \"runtime_seconds\": null}" parent_id=21683 step=2 variance=0.0035657426342368126 loss=0.0035657426342368126 pbc="T T T"
W        0.93113328       0.95398065       0.93998714      -0.04504935       0.05098624      -0.04263889
W        2.75910013       0.96056716       2.81559077      -0.03923585      -0.05279551      -0.04090226
W        2.79273025       2.81412050       0.94277144      -0.08984216      -0.00010675      -0.09159981
W        0.89922625       2.83622058       2.75461915      -0.09819439       0.00181345      -0.09668202
W        3.64103959       3.76576087       3.70978489       0.33366790       0.00149555      -0.04449556
W        5.50324379       5.64031072       5.52291299      -0.06134609      -0.00139291       0.31631845
6
Lattice="-0.063779829 3.764503394 3.629304324 3.655960344 0.01329525 3.751234325 3.723216808 3.720309155 0.0056146" Properties=species:S:1:pos:R:3:forces:R:3 generation=8 composition=W6 config_type=C15_aa source_path=V-Cr-Ti-W-Zr/Fixed_Engrads/vcrtiwzr_fin_engrads/job_gen_6-2024-12-23/W/W6_C15_idx_3031 date_processed=2025-02-12T16:53:55.974980 structure_index=3031 structure_id=21683 energy=-74.89224548339844 stress="0.02563556318746653 -0.002563749805529555 -0.0003823111584877272 -0.002563749805529555 0.027021509013396287 -0.005419177815529887 -0.0003823111584877272 -0.005419177815529887 0.022138077375195714" calculation_info="_JSON {\"calculation_id\": 21682, \"calculator\": \"vasp\", \"calculation_source_path\": \"\", \"error\": null, \"status\": \"completed\", \"gpu_count\": null, \"parameters\": {}, \"date_started\": null, \"gpu_memory_mb\": null, \"model_version\": null, \"date_completed\": null, \"runtime_seconds\": null}" parent_id=21683 step=3 variance=0.0035321989562362432 loss=0.0035321989562362432 pbc="T T T"
W        0.93633009       0.95918540       0.94518951      -0.06025632       0.06635161      -0.05572026
W        2.76427873       0.96569315       2.82077010      -0.05049612      -0.06831463      -0.05414922
W        2.79790949       2.81930015       0.94794239      -0.11599591      -0.00010881      -0.11812443
W        0.90440163       2.84139983       2.75979708      -0.12932903       0.00259501      -0.12751064
W        3.63590484       3.77095544       3.71496906       0.43284672       0.00126560      -0.06003522
W        5.50841784       5.64554359       5.51773627      -0.07676934      -0.00178873       0.41553974
6
Lattice="-0.063779829 3.764503394 3.629304324 3.655960344 0.01329525 3.751234325 3.723216808 3.720309155 0.0056146" Properties=species:S:1:pos:R:3:forces:R:3 generation=8 composition=W6 config_type=C15_aa source_path=V-Cr-Ti-W-Zr/Fixed_Engrads/vcrtiwzr_fin_engrads/job_gen_6-2024-12-23/W/W6_C15_idx_3031 date_processed=2025-02-12T16:53:55.974980 structure_index=3031 structure_id=21683 energy=-74.88438720703125 stress="0.02563556318746653 -0.002563749805529555 -0.0003823111584877272 -0.002563749805529555 0.027021509013396287 -0.005419177815529887 -0.0003823111584877272 -0.005419177815529887 0.022138077375195714" calculation_info="_JSON {\"calculation_id\": 21682, \"calculator\": \"vasp\", \"calculation_source_path\": \"\", \"error\": null, \"status\": \"completed\", \"gpu_count\": null, \"parameters\": {}, \"date_started\": null, \"gpu_memory_mb\": null, \"model_version\": null, \"date_completed\": null, \"runtime_seconds\": null}" parent_id=21683 step=4 variance=0.003538075601682067 loss=0.003538075601682067 pbc="T T T"
W        0.94059261       0.96345481       0.94945822      -0.07316527       0.07879098      -0.06640427
W        2.76851991       0.96987871       2.82501212      -0.05936325      -0.08074822      -0.06516664
W        2.80215197       2.82354288       0.95217817      -0.13677250      -0.00007550      -0.13919982
W        0.90864085       2.84564194       2.76403811      -0.15507765       0.00333234      -0.15301959
W        3.63170023       3.77521386       3.71921520       0.51356941       0.00097253      -0.07257952
W        5.51265623       5.64985165       5.51349515      -0.08919065      -0.00227208       0.49636999
6
Lattice="-0.063779829 3.764503394 3.629304324 3.655960344 0.01329525 3.751234325 3.723216808 3.720309155 0.0056146" Properties=species:S:1:pos:R:3:forces:R:3 generation=8 composition=W6 config_type=C15_aa source_path=V-Cr-Ti-W-Zr/Fixed_Engrads/vcrtiwzr_fin_engrads/job_gen_6-2024-12-23/W/W6_C15_idx_3031 date_processed=2025-02-12T16:53:55.974980 structure_index=3031 structure_id=21683 energy=-74.87667694091797 stress="0.02563556318746653 -0.002563749805529555 -0.0003823111584877272 -0.002563749805529555 0.027021509013396287 -0.005419177815529887 -0.0003823111584877272 -0.005419177815529887 0.022138077375195714" calculation_info="_JSON {\"calculation_id\": 21682, \"calculator\": \"vasp\", \"calculation_source_path\": \"\", \"error\": null, \"status\": \"completed\", \"gpu_count\": null, \"parameters\": {}, \"date_started\": null, \"gpu_memory_mb\": null, \"model_version\": null, \"date_completed\": null, \"runtime_seconds\": null}" parent_id=21683 step=5 variance=0.00355555210262537 loss=0.00355555210262537 pbc="T T T"
W        0.94420038       0.96706771       0.95307281      -0.08443537       0.08920284      -0.07543875
W        2.77210386       0.97340666       2.82859693      -0.06657957      -0.09104307      -0.07454565
W        2.80573780       2.82712878       0.95575918      -0.15384901       0.00000711      -0.15654036
W        0.91222444       2.84922727       2.76762242      -0.17701106       0.00404161      -0.17474507
W        3.62814731       3.77881688       3.72280490       0.58137339       0.00065095      -0.08304697
W        5.51623808       5.65351574       5.50991033      -0.09949841      -0.00285933       0.56431663
6
Lattice="-0.063779829 3.764503394 3.629304324 3.655960344 0.01329525 3.751234325 3.723216808 3.720309155 0.0056146" Properties=species:S:1:pos:R:3:forces:R:3 generation=8 composition=W6 config_type=C15_aa source_path=V-Cr-Ti-W-Zr/Fixed_Engrads/vcrtiwzr_fin_engrads/job_gen_6-2024-12-23/W/W6_C15_idx_3031 date_processed=2025-02-12T16:53:55.974980 structure_index=3031 structure_id=21683 energy=-74.8692611694336 stress="0.02563556318746653 -0.002563749805529555 -0.0003823111584877272 -0.002563749805529555 0.027021509013396287 -0.005419177815529887 -0.0003823111584877272 -0.005419177815529887 0.022138077375195714" calculation_info="_JSON {\"calculation_id\": 21682, \"calculator\": \"vasp\", \"calculation_source_path\": \"\", \"error\": null, \"status\": \"completed\", \"gpu_count\": null, \"parameters\": {}, \"date_started\": null, \"gpu_memory_mb\": null, \"model_version\": null, \"date_completed\": null, \"runtime_seconds\": null}" parent_id=21683 step=6 variance=0.0035765732172876596 loss=0.0035765732172876596 pbc="T T T"
W        0.94731458       0.97018497       0.95619402      -0.09444718       0.09809472      -0.08324678
W        2.77519192       0.97643983       2.83168588      -0.07256918      -0.09975140      -0.08266328
W        2.80882829       2.83021903       0.95884697      -0.16819701       0.00014496      -0.17114730
W        0.91531387       2.85231701       2.77071139      -0.19604465       0.00473167      -0.19356389
W        3.62508353       3.78192597       3.72589874       0.63948578       0.00031461      -0.09194454
W        5.51932576       5.65669434       5.50682123      -0.10822775      -0.00353463       0.62256587
6
Lattice="-0.063779829 3.764503394 3.629304324 3.655960344 0.01329525 3.751234325 3.723216808 3.720309155 0.0056146" Properties=species:S:1:pos:R:3:forces:R:3 generation=8 composition=W6 config_type=C15_aa source_path=V-Cr-Ti-W-Zr/Fixed_Engrads/vcrtiwzr_fin_engrads/job_gen_6-2024-12-23/W/W6_C15_idx_3031 date_processed=2025-02-12T16:53:55.974980 structure_index=3031 structure_id=21683 energy=-74.86219482421875 stress="0.02563556318746653 -0.002563749805529555 -0.0003823111584877272 -0.002563749805529555 0.027021509013396287 -0.005419177815529887 -0.0003823111584877272 -0.005419177815529887 0.022138077375195714" calculation_info="_JSON {\"calculation_id\": 21682, \"calculator\": \"vasp\", \"calculation_source_path\": \"\", \"error\": null, \"status\": \"completed\", \"gpu_count\": null, \"parameters\": {}, \"date_started\": null, \"gpu_memory_mb\": null, \"model_version\": null, \"date_completed\": null, \"runtime_seconds\": null}" parent_id=21683 step=7 variance=0.003598768962547183 loss=0.003598768962547183 pbc="T T T"
W        0.95003890       0.97291023       0.95892576      -0.10344237       0.10577701      -0.09012363
W        2.77788790       0.97908294       2.83438276      -0.07760096      -0.10723279      -0.08974355
W        2.81152721       2.83291738       0.96154520      -0.18041496       0.00033201      -0.18363905
W        0.91801275       2.85501493       2.77340878      -0.21276517       0.00542760      -0.21005473
W        3.62240823       3.78464480       3.72860182       0.68995619      -0.00003941      -0.09962050
W        5.52202301       5.65948777       5.50412413      -0.11573285      -0.00426438       0.67318135
6
Lattice="-0.063779829 3.764503394 3.629304324 3.655960344 0.01329525 3.751234325 3.723216808 3.720309155 0.0056146" Properties=species:S:1:pos:R:3:forces:R:3 generation=8 composition=W6 config_type=C15_aa source_path=V-Cr-Ti-W-Zr/Fixed_Engrads/vcrtiwzr_fin_engrads/job_gen_6-2024-12-23/W/W6_C15_idx_3031 date_processed=2025-02-12T16:53:55.974980 structure_index=3031 structure_id=21683 energy=-74.85551147460937 stress="0.02563556318746653 -0.002563749805529555 -0.0003823111584877272 -0.002563749805529555 0.027021509013396287 -0.005419177815529887 -0.0003823111584877272 -0.005419177815529887 0.022138077375195714" calculation_info="_JSON {\"calculation_id\": 21682, \"calculator\": \"vasp\", \"calculation_source_path\": \"\", \"error\": null, \"status\": \"completed\", \"gpu_count\": null, \"parameters\": {}, \"date_started\": null, \"gpu_memory_mb\": null, \"model_version\": null, \"date_completed\": null, \"runtime_seconds\": null}" parent_id=21683 step=8 variance=0.003620615927502513 loss=0.003620615927502513 pbc="T T T"
W        0.95244516       0.97531512       0.96133979      -0.11161734       0.11248133      -0.09626316
W        2.78026365       0.98140761       2.83675944      -0.08186050      -0.11372459      -0.09594815
W        2.81390645       2.83529579       0.96392591      -0.19093595       0.00058284      -0.19446565
W        0.92039310       2.85739288       2.77578648      -0.22759691       0.00612691      -0.22461686
W        3.62004590       3.78704477       3.73098502       0.73425084      -0.00038812      -0.10630198
W        5.52440110       5.66197000       5.50174696      -0.12224028      -0.00507850       0.71759582
6
Lattice="-0.063779829 3.764503394 3.629304324 3.655960344 0.01329525 3.751234325 3.723216808 3.720309155 0.0056146" Properties=species:S:1:pos:R:3:forces:R:3 generation=8 composition=W6 config_type=C15_aa source_path=V-Cr-Ti-W-Zr/Fixed_Engrads/vcrtiwzr_fin_engrads/job_gen_6-2024-12-23/W/W6_C15_idx_3031 date_processed=2025-02-12T16:53:55.974980 structure_index=3031 structure_id=21683 energy=-74.84922332763672 stress="0.02563556318746653 -0.002563749805529555 -0.0003823111584877272 -0.002563749805529555 0.027021509013396287 -0.005419177815529887 -0.0003823111584877272 -0.005419177815529887 0.022138077375195714" calculation_info="_JSON {\"calculation_id\": 21682, \"calculator\": \"vasp\", \"calculation_source_path\": \"\", \"error\": null, \"status\": \"completed\", \"gpu_count\": null, \"parameters\": {}, \"date_started\": null, \"gpu_memory_mb\": null, \"model_version\": null, \"date_completed\": null, \"runtime_seconds\": null}" parent_id=21683 step=9 variance=0.003641962306573987 loss=0.003641962306573987 pbc="T T T"
W        0.95458593       0.97745210       0.96348873      -0.11909311       0.11838321      -0.10179920
W        2.78237174       0.98346653       2.83886844      -0.08548748      -0.11939231      -0.10140710
W        2.81601857       2.83740678       0.96604166      -0.20007904       0.00087790      -0.20392630
W        0.92250747       2.85950351       2.77789702      -0.24083260       0.00682455      -0.23756163
W        3.61794511       3.78917904       3.73310141       0.77342474      -0.00074076      -0.11216848
W        5.52651256       5.66419177       5.49963663      -0.12793259      -0.00595251       0.75686252
6
Lattice="-0.063779829 3.764503394 3.629304324 3.655960344 0.01329525 3.751234325 3.723216808 3.720309155 0.0056146" Properties=species:S:1:pos:R:3:forces:R:3 generation=8 composition=W6 config_type=C15_aa source_path=V-Cr-Ti-W-Zr/Fixed_Engrads/vcrtiwzr_fin_engrads/job_gen_6-2024-12-23/W/W6_C15_idx_3031 date_processed=2025-02-12T16:53:55.974980 structure_index=3031 structure_id=21683 energy=-74.84332733154297 stress="0.02563556318746653 -0.002563749805529555 -0.0003823111584877272 -0.002563749805529555 0.027021509013396287 -0.005419177815529887 -0.0003823111584877272 -0.005419177815529887 0.022138077375195714" calculation_info="_JSON {\"calculation_id\": 21682, \"calculator\": \"vasp\", \"calculation_source_path\": \"\", \"error\": null, \"status\": \"completed\", \"gpu_count\": null, \"parameters\": {}, \"date_started\": null, \"gpu_memory_mb\": null, \"model_version\": null, \"date_completed\": null, \"runtime_seconds\": null}" parent_id=21683 step=10 variance=0.0036624104250222445 loss=0.0036624104250222445 pbc="T T T"
W        0.95650142       0.97936103       0.96541245      -0.12598026       0.12359092      -0.10683441
W        2.78425219       0.98529981       2.84074979      -0.08859165      -0.12438004      -0.10620741
W        2.81790356       2.83929023       0.96793225      -0.20805614       0.00123085      -0.21226326
W        0.92439575       2.86138671       2.77978039      -0.25272065       0.00752765      -0.24910912
W        3.61606508       3.79108691       3.73499118       0.80827892      -0.00108659      -0.11735280
W        5.52839633       5.66619121       5.49775359      -0.13293032      -0.00688269       0.79176706
6
Lattice="-0.063779829 3.764503394 3.629304324 3.655960344 0.01329525 3.751234325 3.723216808 3.720309155 0.0056146" Properties=species:S:1:pos:R:3:forces:R:3 generation=8 composition=W6 config_type=C15_aa source_path=V-Cr-Ti-W-Zr/Fixed_Engrads/vcrtiwzr_fin_engrads/job_gen_6-2024-12-23/W/W6_C15_idx_3031 date_processed=2025-02-12T16:53:55.974980 structure_index=3031 structure_id=21683 energy=-74.8378173828125 stress="0.02563556318746653 -0.002563749805529555 -0.0003823111584877272 -0.002563749805529555 0.027021509013396287 -0.005419177815529887 -0.0003823111584877272 -0.005419177815529887 0.022138077375195714" calculation_info="_JSON {\"calculation_id\": 21682, \"calculator\": \"vasp\", \"calculation_source_path\": \"\", \"error\": null, \"status\": \"completed\", \"gpu_count\": null, \"parameters\": {}, \"date_started\": null, \"gpu_memory_mb\": null, \"model_version\": null, \"date_completed\": null, \"runtime_seconds\": null}" parent_id=21683 step=11 variance=0.003682442009449005 loss=0.003682442009449005 pbc="T T T"
W        0.95822292       0.98107323       0.96714248      -0.13235897       0.12822255      -0.11146410
W        2.78593639       0.98693888       2.84243491      -0.09123013      -0.12877794      -0.11042621
W        2.81959282       2.84097761       0.96962920      -0.21506004       0.00163586      -0.21964662
W        0.92608947       2.86307393       2.78146805      -0.26343465       0.00825075      -0.25944489
W        3.61437656       3.79280025       3.73668582       0.83942509      -0.00143388      -0.12195609
W        5.53008475       5.66800240       5.49606628      -0.13734135      -0.00789737       0.82293797
6
Lattice="-0.063779829 3.764503394 3.629304324 3.655960344 0.01329525 3.751234325 3.723216808 3.720309155 0.0056146" Properties=species:S:1:pos:R:3:forces:R:3 generation=8 composition=W6 config_type=C15_aa source_path=V-Cr-Ti-W-Zr/Fixed_Engrads/vcrtiwzr_fin_engrads/job_gen_6-2024-12-23/W/W6_C15_idx_3031 date_processed=2025-02-12T16:53:55.974980 structure_index=3031 structure_id=21683 energy=-74.83267974853516 stress="0.02563556318746653 -0.002563749805529555 -0.0003823111584877272 -0.002563749805529555 0.027021509013396287 -0.005419177815529887 -0.0003823111584877272 -0.005419177815529887 0.022138077375195714" calculation_info="_JSON {\"calculation_id\": 21682, \"calculator\": \"vasp\", \"calculation_source_path\": \"\", \"error\": null, \"status\": \"completed\", \"gpu_count\": null, \"parameters\": {}, \"date_started\": null, \"gpu_memory_mb\": null, \"model_version\": null, \"date_completed\": null, \"runtime_seconds\": null}" parent_id=21683 step=12 variance=0.003702397458255291 loss=0.003702397458255291 pbc="T T T"
W        0.95977592       0.98261411       0.96870424      -0.13829228       0.13233875      -0.11574998
W        2.78744969       0.98840929       2.84394909      -0.09346782      -0.13266604      -0.11411949
W        2.82111166       2.84249416       0.97115773      -0.22122252       0.00210114      -0.22622618
W        0.92761395       2.86459045       2.78298524      -0.27312654       0.00899442      -0.26870832
W        3.61285474       3.79434483       3.73821052       0.86736166      -0.00177911      -0.12606232
W        5.53160341       5.66965103       5.49454982      -0.14125253      -0.00898905       0.85086632
6
Lattice="-0.063779829 3.764503394 3.629304324 3.655960344 0.01329525 3.751234325 3.723216808 3.720309155 0.0056146" Properties=species:S:1:pos:R:3:forces:R:3 generation=8 composition=W6 config_type=C15_aa source_path=V-Cr-Ti-W-Zr/Fixed_Engrads/vcrtiwzr_fin_engrads/job_gen_6-2024-12-23/W/W6_C15_idx_3031 date_processed=2025-02-12T16:53:55.974980 structure_index=3031 structure_id=21683 energy=-74.82789154052735 stress="0.02563556318746653 -0.002563749805529555 -0.0003823111584877272 -0.002563749805529555 0.027021509013396287 -0.005419177815529887 -0.0003823111584877272 -0.005419177815529887 0.022138077375195714" calculation_info="_JSON {\"calculation_id\": 21682, \"calculator\": \"vasp\", \"calculation_source_path\": \"\", \"error\": null, \"status\": \"completed\", \"gpu_count\": null, \"parameters\": {}, \"date_started\": null, \"gpu_memory_mb\": null, \"model_version\": null, \"date_completed\": null, \"runtime_seconds\": null}" parent_id=21683 step=13 variance=0.0037219421938061714 loss=0.0037219421938061714 pbc="T T T"
W        0.96118147       0.98400447       0.97011874      -0.14385466       0.13600460      -0.11975090
W        2.78881281       0.98973170       2.84531309      -0.09535846      -0.13612989      -0.11732981
W        2.82248083       2.84386057       0.97253887      -0.22665648       0.00263045      -0.23212774
W        0.92898991       2.86595707       2.78435275      -0.28192526       0.00975576      -0.27702984
W        3.61147717       3.79574088       3.73958582       0.89251631      -0.00211607      -0.12973094
W        5.53297234       5.67115580       5.49318309      -0.14472172      -0.01014495       0.87596929
6
Lattice="-0.063779829 3.764503394 3.629304324 3.655960344 0.01329525 3.751234325 3.723216808 3.720309155 0.0056146" Properties=species:S:1:pos:R:3:forces:R:3 generation=8 composition=W6 config_type=C15_aa source_path=V-Cr-Ti-W-Zr/Fixed_Engrads/vcrtiwzr_fin_engrads/job_gen_6-2024-12-23/W/W6_C15_idx_3031 date_processed=2025-02-12T16:53:55.974980 structure_index=3031 structure_id=21683 energy=-74.82344207763671 stress="0.02563556318746653 -0.002563749805529555 -0.0003823111584877272 -0.002563749805529555 0.027021509013396287 -0.005419177815529887 -0.0003823111584877272 -0.005419177815529887 0.022138077375195714" calculation_info="_JSON {\"calculation_id\": 21682, \"calculator\": \"vasp\", \"calculation_source_path\": \"\", \"error\": null, \"status\": \"completed\", \"gpu_count\": null, \"parameters\": {}, \"date_started\": null, \"gpu_memory_mb\": null, \"model_version\": null, \"date_completed\": null, \"runtime_seconds\": null}" parent_id=21683 step=14 variance=0.00374175445176661 loss=0.00374175445176661 pbc="T T T"
W        0.96245698       0.98526184       0.97140359      -0.14908910       0.13927040      -0.12352116
W        2.79004312       0.99092365       2.84654427      -0.09692861      -0.13921057      -0.12010805
W        2.82371773       2.84509427       0.97378998      -0.23144999       0.00321487      -0.23744175
W        0.93023478       2.86719111       2.78558792      -0.28993532       0.01055247      -0.28450108
W        3.61022904       3.79700625       3.74082973       0.91520941      -0.00245240      -0.13302231
W        5.53420862       5.67253557       5.49194881      -0.14780644      -0.01137486       0.89859426
6
Lattice="-0.063779829 3.764503394 3.629304324 3.655960344 0.01329525 3.751234325 3.723216808 3.720309155 0.0056146" Properties=species:S:1:pos:R:3:forces:R:3 generation=8 composition=W6 config_type=C15_aa source_path=V-Cr-Ti-W-Zr/Fixed_Engrads/vcrtiwzr_fin_engrads/job_gen_6-2024-12-23/W/W6_C15_idx_3031 date_processed=2025-02-12T16:53:55.974980 structure_index=3031 structure_id=21683 energy=-74.81931762695312 stress="0.02563556318746653 -0.002563749805529555 -0.0003823111584877272 -0.002563749805529555 0.027021509013396287 -0.005419177815529887 -0.0003823111584877272 -0.005419177815529887 0.022138077375195714" calculation_info="_JSON {\"calculation_id\": 21682, \"calculator\": \"vasp\", \"calculation_source_path\": \"\", \"error\": null, \"status\": \"completed\", \"gpu_count\": null, \"parameters\": {}, \"date_started\": null, \"gpu_memory_mb\": null, \"model_version\": null, \"date_completed\": null, \"runtime_seconds\": null}" parent_id=21683 step=15 variance=0.0037617075722664595 loss=0.0037617075722664595 pbc="T T T"
W        0.96361732       0.98640092       0.97257364      -0.15404423       0.14218339      -0.12709090
W        2.79115528       0.99199948       2.84765729      -0.09821495      -0.14196220      -0.12247123
W        2.82483703       2.84620988       0.97492587      -0.23568079       0.00387176      -0.24225533
W        0.93136323       2.86830726       2.78670544      -0.29724613       0.01137556      -0.29120797
W        3.60909526       3.79815543       3.74195687       0.93573284      -0.00278427      -0.13598707
W        5.53532703       5.67380486       5.49083225      -0.15054688      -0.01268427       0.91901225
6
Lattice="-0.063779829 3.764503394 3.629304324 3.655960344 0.01329525 3.751234325 3.723216808 3.720309155 0.0056146" Properties=species:S:1:pos:R:3:forces:R:3 generation=8 composition=W6 config_type=C15_aa source_path=V-Cr-Ti-W-Zr/Fixed_Engrads/vcrtiwzr_fin_engrads/job_gen_6-2024-12-23/W/W6_C15_idx_3031 date_processed=2025-02-12T16:53:55.974980 structure_index=3031 structure_id=21683 energy=-74.81548919677735 stress="0.02563556318746653 -0.002563749805529555 -0.0003823111584877272 -0.002563749805529555 0.027021509013396287 -0.005419177815529887 -0.0003823111584877272 -0.005419177815529887 0.022138077375195714" calculation_info="_JSON {\"calculation_id\": 21682, \"calculator\": \"vasp\", \"calculation_source_path\": \"\", \"error\": null, \"status\": \"completed\", \"gpu_count\": null, \"parameters\": {}, \"date_started\": null, \"gpu_memory_mb\": null, \"model_version\": null, \"date_completed\": null, \"runtime_seconds\": null}" parent_id=21683 step=16 variance=0.003782861167564988 loss=0.003782861167564988 pbc="T T T"
W        0.96467534       0.98743450       0.97364175      -0.15875690       0.14477943      -0.13051334
W        2.79216188       0.99297202       2.84866475      -0.09923600      -0.14441109      -0.12446562
W        2.82585133       2.84722008       0.97595939      -0.23941545       0.00459405      -0.24662027
W        0.93238803       2.86931815       2.78771793      -0.30393210       0.01224872      -0.29721910
W        3.60806446       3.79920174       3.74298048       0.95432317      -0.00311192      -0.13865733
W        5.53634069       5.67497922       5.48982141      -0.15298270      -0.01409928       0.93747556
6