6
Lattice="-8.4875e-05 3.742043915 3.708782736 3.643295205 0.066372659 3.695411931 3.671836497 3.653529253 0.050481717" Properties=species:S:1:pos:R:3:forces:R:3 generation=6 composition=W6 config_type=C15 source_path=V-Cr-Ti-W-Zr/Fixed_Engrads/vcrtiwzr_fin_engrads/job_gen_6-2024-12-23/W/W6_C15_idx_3026 date_processed=2025-02-12T16:53:55.753371 structure_index=3026 structure_id=21678 energy=-74.88214 stress="-0.04716810807179642 0.0006063001964882997 0.0009185878640927426 0.0006063001964882997 -0.04679675700333375 0.022588439707682942 0.0009185878640927426 0.022588439707682942 -0.04568099362444523" calculation_info="_JSON {\"calculation_id\": 21677, \"calculator\": \"vasp\", \"calculation_source_path\": \"\", \"error\": null, \"status\": \"completed\", \"gpu_count\": null, \"parameters\": {}, \"date_started\": null, \"gpu_memory_mb\": null, \"model_version\": null, \"date_completed\": null, \"runtime_seconds\": null}" pbc="T T T"
W        0.91438000       0.93274000       0.93183000       0.00000000       0.00000000       0.00000000
W        2.73603000       0.96593000       2.77954000       0.00000000       0.00000000       0.00000000
W        2.75030000       2.75951000       0.95708000       0.00000000       0.00000000       0.00000000
W        0.91434000       2.80377000       2.78623000       0.00000000       0.00000000       0.00000000
W        3.65752000       3.73097000       3.72734000      -0.07955200      -0.00248100      -0.00229500
W        5.48629000       5.59646000       5.59101000       0.07955200       0.00248100       0.00229500
6
Lattice="-8.4875e-05 3.742043915 3.708782736 3.643295205 0.066372659 3.695411931 3.671836497 3.653529253 0.050481717" Properties=species:S:1:pos:R:3:forces:R:3 generation=8 composition=W6 config_type=C15_aa source_path=V-Cr-Ti-W-Zr/Fixed_Engrads/vcrtiwzr_fin_engrads/job_gen_6-2024-12-23/W/W6_C15_idx_3026 date_processed=2025-02-12T16:53:55.753371 structure_index=3026 structure_id=21678 energy=-74.82177734375 stress="-0.04716810807179642 0.0006063001964882997 0.0009185878640927426 0.0006063001964882997 -0.04679675700333375 0.022588439707682942 0.0009185878640927426 0.022588439707682942 -0.04568099362444523" calculation_info="_JSON {\"calculation_id\": 21677, \"calculator\": \"vasp\", \"calculation_source_path\": \"\", \"error\": null, \"status\": \"completed\", \"gpu_count\": null, \"parameters\": {}, \"date_started\": null, \"gpu_memory_mb\": null, \"model_version\": null, \"date_completed\": null, \"runtime_seconds\": null}" parent_id=21678 step=0 variance=0.21242618560791016 loss=0.21242618560791016 pbc="T T T"
W        0.91438000       0.93274000       0.93183000       0.00009882       0.00016578       0.00017915
W        2.73603000       0.96593000       2.77954000      -0.00009874      -0.00000556      -0.00001568
W        2.75030000       2.75951000       0.95708000      -0.00004561      -0.00004106      -0.00004925
W        0.91434000       2.80377000       2.78623000       0.00000584      -0.00017287      -0.00009635
W        3.65752000       3.73097000       3.72734000      -0.05823578      -0.00170693      -0.00160505
W        5.48629000       5.59646000       5.59101000       0.05827529       0.00176066       0.00158714
6
Lattice="-8.4875e-05 3.742043915 3.708782736 3.643295205 0.066372659 3.695411931 3.671836497 3.653529253 0.050481717" Properties=species:S:1:pos:R:3:forces:R:3 generation=8 composition=W6 config_type=C15_aa source_path=V-Cr-Ti-W-Zr/Fixed_Engrads/vcrtiwzr_fin_engrads/job_gen_6-2024-12-23/W/W6_C15_idx_3026 date_processed=2025-02-12T16:53:55.753371 structure_index=3026 structure_id=21678 energy=-74.81763763427735 stress="-0.04716810807179642 0.0006063001964882997 0.0009185878640927426 0.0006063001964882997 -0.04679675700333375 0.022588439707682942 0.0009185878640927426 0.022588439707682942 -0.04568099362444523" calculation_info="_JSON {\"calculation_id\": 21677, \"calculator\": \"vasp\", \"calculation_source_path\": \"\", \"error\": null, \"status\": \"completed\", \"gpu_count\": null, \"parameters\": {}, \"date_started\": null, \"gpu_memory_mb\": null, \"model_version\": null, \"date_completed\": null, \"runtime_seconds\": null}" parent_id=21678 step=1 variance=0.033916447311639786 loss=0.033916447311639786 pbc="T T T"
W        0.92438000       0.94274000       0.94183000       0.03196418      -0.02530483      -0.02508589
W        2.74603000       0.97593000       2.78954000       0.00092959      -0.05881349      -0.06050977
W        2.76030000       2.76951000       0.96708000       0.00149352      -0.06066071      -0.05848933
W        0.92434000       2.81377000       2.79623000      -0.03116458      -0.02559351      -0.02584356
W        3.66752000       3.74097000       3.73734000      -0.05881841      -0.03499049      -0.03502054
W        5.49629000       5.58646000       5.58101000       0.05559562       0.20536308       0.20494890
6
Lattice="-8.4875e-05 3.742043915 3.708782736 3.643295205 0.066372659 3.695411931 3.671836497 3.653529253 0.050481717" Properties=species:S:1:pos:R:3:forces:R:3 generation=8 composition=W6 config_type=C15_aa source_path=V-Cr-Ti-W-Zr/Fixed_Engrads/vcrtiwzr_fin_engrads/job_gen_6-2024-12-23/W/W6_C15_idx_3026 date_processed=2025-02-12T16:53:55.753371 structure_index=3026 structure_id=21678 energy=-74.8099349975586 stress="-0.04716810807179642 0.0006063001964882997 0.0009185878640927426 0.0006063001964882997 -0.04679675700333375 0.022588439707682942 0.0009185878640927426 0.022588439707682942 -0.04568099362444523" calculation_info="_JSON {\"calculation_id\": 21677, \"calculator\": \"vasp\", \"calculation_source_path\": \"\", \"error\": null, \"status\": \"completed\", \"gpu_count\": null, \"parameters\": {}, \"date_started\": null, \"gpu_memory_mb\": null, \"model_version\": null, \"date_completed\": null, \"runtime_seconds\": null}" parent_id=21678 step=2 variance=0.03883843496441841 loss=0.03883843496441841 pbc="T T T"
W        0.93212721       0.94945122       0.94853993       0.03770839      -0.04513866      -0.04541630
W        2.75282848       0.98467199       2.79628112       0.04057577      -0.17575893      -0.07197414
W        2.76713446       2.77628554       0.97532990       0.03752071      -0.07294495      -0.17028603
W        0.93424349       2.82053086       2.80297795      -0.14097326      -0.01017208      -0.01673068
W        3.67282262       3.74669148       3.74295476      -0.03301478      -0.03866963      -0.03891050
W        5.50317365       5.58015410       5.57448672       0.05818310       0.34268421       0.34331757
6
Lattice="-8.4875e-05 3.742043915 3.708782736 3.643295205 0.066372659 3.695411931 3.671836497 3.653529253 0.050481717" Properties=species:S:1:pos:R:3:forces:R:3 generation=8 composition=W6 config_type=C15_aa source_path=V-Cr-Ti-W-Zr/Fixed_Engrads/vcrtiwzr_fin_engrads/job_gen_6-2024-12-23/W/W6_C15_idx_3026 date_processed=2025-02-12T16:53:55.753371 structure_index=3026 structure_id=21678 energy=-74.79966278076172 stress="-0.04716810807179642 0.0006063001964882997 0.0009185878640927426 0.0006063001964882997 -0.04679675700333375 0.022588439707682942 0.0009185878640927426 0.022588439707682942 -0.04568099362444523" calculation_info="_JSON {\"calculation_id\": 21677, \"calculator\": \"vasp\", \"calculation_source_path\": \"\", \"error\": null, \"status\": \"completed\", \"gpu_count\": null, \"parameters\": {}, \"date_started\": null, \"gpu_memory_mb\": null, \"model_version\": null, \"date_completed\": null, \"runtime_seconds\": null}" parent_id=21678 step=3 variance=0.14420725405216217 loss=0.14420725405216217 pbc="T T T"
W        0.93763539       0.95463352       0.95371727       0.06152458      -0.05144323      -0.05465394
W        2.75813409       0.99347431       2.80176786       0.09317940      -0.33428010      -0.07204472
W        2.77248317       2.78202225       0.98337492       0.08263650      -0.07600150      -0.32158801
W        0.94411590       2.82584575       2.80826418      -0.29752329       0.02807982       0.01176838
W        3.67644219       3.74958526       3.74561354      -0.00143189      -0.01537362      -0.01578635
W        5.50858664       5.57579982       5.56966230       0.06161465       0.44901866       0.45230466
6
Lattice="-8.4875e-05 3.742043915 3.708782736 3.643295205 0.066372659 3.695411931 3.671836497 3.653529253 0.050481717" Properties=species:S:1:pos:R:3:forces:R:3 generation=8 composition=W6 config_type=C15_aa source_path=V-Cr-Ti-W-Zr/Fixed_Engrads/vcrtiwzr_fin_engrads/job_gen_6-2024-12-23/W/W6_C15_idx_3026 date_processed=2025-02-12T16:53:55.753371 structure_index=3026 structure_id=21678 energy=-74.78645172119141 stress="-0.04716810807179642 0.0006063001964882997 0.0009185878640927426 0.0006063001964882997 -0.04679675700333375 0.022588439707682942 0.0009185878640927426 0.022588439707682942 -0.04568099362444523" calculation_info="_JSON {\"calculation_id\": 21677, \"calculator\": \"vasp\", \"calculation_source_path\": \"\", \"error\": null, \"status\": \"completed\", \"gpu_count\": null, \"parameters\": {}, \"date_started\": null, \"gpu_memory_mb\": null, \"model_version\": null, \"date_completed\": null, \"runtime_seconds\": null}" parent_id=21678 step=4 variance=0.026592187583446503 loss=0.026592187583446503 pbc="T T T"
W        0.94316602       0.95875807       0.95798129       0.07119350      -0.05394785      -0.06642118
W        2.76262586       1.00247158       2.80650802       0.15258360      -0.52044022      -0.04731470
W        2.77714939       2.78693896       0.99185103       0.13094039      -0.05420871      -0.50400531
W        0.95307775       2.83026297       2.81269891      -0.47521392       0.07211795       0.04171206
W        3.67715042       3.75082675       3.74525511       0.05610139       0.02222950       0.03647814
W        5.51316204       5.57261392       5.56598408       0.06439513       0.53424925       0.53955108
6
Lattice="-8.4875e-05 3.742043915 3.708782736 3.643295205 0.066372659 3.695411931 3.671836497 3.653529253 0.050481717" Properties=species:S:1:pos:R:3:forces:R:3 generation=8 composition=W6 config_type=C15_aa source_path=V-Cr-Ti-W-Zr/Fixed_Engrads/vcrtiwzr_fin_engrads/job_gen_6-2024-12-23/W/W6_C15_idx_3026 date_processed=2025-02-12T16:53:55.753371 structure_index=3026 structure_id=21678 energy=-74.7755355834961 stress="-0.04716810807179642 0.0006063001964882997 0.0009185878640927426 0.0006063001964882997 -0.04679675700333375 0.022588439707682942 0.0009185878640927426 0.022588439707682942 -0.04568099362444523" calculation_info="_JSON {\"calculation_id\": 21677, \"calculator\": \"vasp\", \"calculation_source_path\": \"\", \"error\": null, \"status\": \"completed\", \"gpu_count\": null, \"parameters\": {}, \"date_started\": null, \"gpu_memory_mb\": null, \"model_version\": null, \"date_completed\": null, \"runtime_seconds\": null}" parent_id=21678 step=5 variance=0.012560182251036167 loss=0.012560182251036167 pbc="T T T"
W        0.94721191       0.96226123       0.96158156       0.08842873      -0.05718129      -0.07613043
W        2.76633236       1.00871604       2.81045109       0.16781481      -0.61210918      -0.04425789
W        2.78095262       2.79099542       0.99791182       0.13991526      -0.05238304      -0.59532648
W        0.95691463       2.83398165       2.81642836      -0.53668350       0.07618116       0.03837264
W        3.67873130       3.75227947       3.74551847       0.08280571       0.04292952       0.06848474
W        5.51692796       5.56968126       5.56276044       0.05771895       0.60256290       0.60885733
6
Lattice="-8.4875e-05 3.742043915 3.708782736 3.643295205 0.066372659 3.695411931 3.671836497 3.653529253 0.050481717" Properties=species:S:1:pos:R:3:forces:R:3 generation=8 composition=W6 config_type=C15_aa source_path=V-Cr-Ti-W-Zr/Fixed_Engrads/vcrtiwzr_fin_engrads/job_gen_6-2024-12-23/W/W6_C15_idx_3026 date_processed=2025-02-12T16:53:55.753371 structure_index=3026 structure_id=21678 energy=-74.76569519042968 stress="-0.04716810807179642 0.0006063001964882997 0.0009185878640927426 0.0006063001964882997 -0.04679675700333375 0.022588439707682942 0.0009185878640927426 0.022588439707682942 -0.04568099362444523" calculation_info="_JSON {\"calculation_id\": 21677, \"calculator\": \"vasp\", \"calculation_source_path\": \"\", \"error\": null, \"status\": \"completed\", \"gpu_count\": null, \"parameters\": {}, \"date_started\": null, \"gpu_memory_mb\": null, \"model_version\": null, \"date_completed\": null, \"runtime_seconds\": null}" parent_id=21678 step=6 variance=0.009328053332865238 loss=0.009328053332865238 pbc="T T T"
W        0.95067395       0.96527728       0.96467540       0.10306432      -0.06084511      -0.08493666
W        2.76950830       1.01374278       2.81382831       0.17415948      -0.67537349      -0.04511983
W        2.78420001       2.79445175       1.00285088       0.14180866      -0.05393887      -0.65906119
W        0.95945208       2.83719146       2.81964469      -0.57023573       0.07200125       0.02895915
W        3.68030531       3.75363543       3.74587771       0.10131593       0.05790858       0.09308778
W        5.52014901       5.56708128       5.55995225       0.04988750       0.66024774       0.66707081
6
Lattice="-8.4875e-05 3.742043915 3.708782736 3.643295205 0.066372659 3.695411931 3.671836497 3.653529253 0.050481717" Properties=species:S:1:pos:R:3:forces:R:3 generation=8 composition=W6 config_type=C15_aa source_path=V-Cr-Ti-W-Zr/Fixed_Engrads/vcrtiwzr_fin_engrads/job_gen_6-2024-12-23/W/W6_C15_idx_3026 date_processed=2025-02-12T16:53:55.753371 structure_index=3026 structure_id=21678 energy=-74.756787109375 stress="-0.04716810807179642 0.0006063001964882997 0.0009185878640927426 0.0006063001964882997 -0.04679675700333375 0.022588439707682942 0.0009185878640927426 0.022588439707682942 -0.04568099362444523" calculation_info="_JSON {\"calculation_id\": 21677, \"calculator\": \"vasp\", \"calculation_source_path\": \"\", \"error\": null, \"status\": \"completed\", \"gpu_count\": null, \"parameters\": {}, \"date_started\": null, \"gpu_memory_mb\": null, \"model_version\": null, \"date_completed\": null, \"runtime_seconds\": null}" parent_id=21678 step=7 variance=0.008021070621907711 loss=0.008021070621907711 pbc="T T T"
W        0.95375566       0.96790626       0.96736748       0.11435944      -0.06489530      -0.09317382
W        2.77227411       1.01792047       2.81676274       0.17630413      -0.72143400      -0.04736518
W        2.78702196       2.79743966       1.00699022       0.14065787      -0.05651753      -0.70594740
W        0.96125000       2.84000103       2.82245785      -0.58863556       0.06380954       0.01684412
W        3.68177344       3.75487891       3.74626558       0.11537017       0.06925068       0.11277959
W        5.52294842       5.56476745       5.55748239       0.04194393       0.70978659       0.71686268
6
Lattice="-8.4875e-05 3.742043915 3.708782736 3.643295205 0.066372659 3.695411931 3.671836497 3.653529253 0.050481717" Properties=species:S:1:pos:R:3:forces:R:3 generation=8 composition=W6 config_type=C15_aa source_path=V-Cr-Ti-W-Zr/Fixed_Engrads/vcrtiwzr_fin_engrads/job_gen_6-2024-12-23/W/W6_C15_idx_3026 date_processed=2025-02-12T16:53:55.753371 structure_index=3026 structure_id=21678 energy=-74.74876708984375 stress="-0.04716810807179642 0.0006063001964882997 0.0009185878640927426 0.0006063001964882997 -0.04679675700333375 0.022588439707682942 0.0009185878640927426 0.022588439707682942 -0.04568099362444523" calculation_info="_JSON {\"calculation_id\": 21677, \"calculator\": \"vasp\", \"calculation_source_path\": \"\", \"error\": null, \"status\": \"completed\", \"gpu_count\": null, \"parameters\": {}, \"date_started\": null, \"gpu_memory_mb\": null, \"model_version\": null, \"date_completed\": null, \"runtime_seconds\": null}" parent_id=21678 step=8 variance=0.007417377550154924 loss=0.007417377550154924 pbc="T T T"
W        0.95655458       0.97021866       0.96973145       0.12246618      -0.06928872      -0.10102117
W        2.77470839       1.02143703       2.81933662       0.17585690      -0.75503045      -0.05021473
W        2.78950119       2.80004731       1.01050249       0.13775337      -0.05944072      -0.74057233
W        0.96253094       2.84248474       2.82494254      -0.59673345       0.05307131       0.00312303
W        3.68312092       3.75601640       3.74665999       0.12643483       0.07791875       0.12877309
W        5.52540636       5.56269552       5.55529221       0.03422215       0.75276971       0.75991201
6
Lattice="-8.4875e-05 3.742043915 3.708782736 3.643295205 0.066372659 3.695411931 3.671836497 3.653529253 0.050481717" Properties=species:S:1:pos:R:3:forces:R:3 generation=8 composition=W6 config_type=C15_aa source_path=V-Cr-Ti-W-Zr/Fixed_Engrads/vcrtiwzr_fin_engrads/job_gen_6-2024-12-23/W/W6_C15_idx_3026 date_processed=2025-02-12T16:53:55.753371 structure_index=3026 structure_id=21678 energy=-74.74156188964844 stress="-0.04716810807179642 0.0006063001964882997 0.0009185878640927426 0.0006063001964882997 -0.04679675700333375 0.022588439707682942 0.0009185878640927426 0.022588439707682942 -0.04568099362444523" calculation_info="_JSON {\"calculation_id\": 21677, \"calculator\": \"vasp\", \"calculation_source_path\": \"\", \"error\": null, \"status\": \"completed\", \"gpu_count\": null, \"parameters\": {}, \"date_started\": null, \"gpu_memory_mb\": null, \"model_version\": null, \"date_completed\": null, \"runtime_seconds\": null}" parent_id=21678 step=9 variance=0.007160997483879328 loss=0.007160997483879328 pbc="T T T"
W        0.95912834       0.97226596       0.97182050       0.12775066      -0.07396436      -0.10851918
W        2.77686714       1.02441432       2.82161050       0.17355433      -0.77891135      -0.05339883
W        2.79169645       2.80233856       1.01350152       0.13370343      -0.06247694      -0.76565278
W        0.96341993       2.84469666       2.82715328      -0.59715992       0.04051941      -0.01164668
W        3.68435223       3.75705922       3.74705313       0.13529077       0.08448140       0.14180169
W        5.52758026       5.56082920       5.55333823       0.02686072       0.79035175       0.79741573
6
Lattice="-8.4875e-05 3.742043915 3.708782736 3.643295205 0.066372659 3.695411931 3.671836497 3.653529253 0.050481717" Properties=species:S:1:pos:R:3:forces:R:3 generation=8 composition=W6 config_type=C15_aa source_path=V-Cr-Ti-W-Zr/Fixed_Engrads/vcrtiwzr_fin_engrads/job_gen_6-2024-12-23/W/W6_C15_idx_3026 date_processed=2025-02-12T16:53:55.753371 structure_index=3026 structure_id=21678 energy=-74.73513488769531 stress="-0.04716810807179642 0.0006063001964882997 0.0009185878640927426 0.0006063001964882997 -0.04679675700333375 0.022588439707682942 0.0009185878640927426 0.022588439707682942 -0.04568099362444523" calculation_info="_JSON {\"calculation_id\": 21677, \"calculator\": \"vasp\", \"calculation_source_path\": \"\", \"error\": null, \"status\": \"completed\", \"gpu_count\": null, \"parameters\": {}, \"date_started\": null, \"gpu_memory_mb\": null, \"model_version\": null, \"date_completed\": null, \"runtime_seconds\": null}" parent_id=21678 step=10 variance=0.0071118841879069805 loss=0.0071118841879069805 pbc="T T T"
W        0.96151994       0.97408734       0.97367495       0.13047650      -0.07889175      -0.11575551
W        2.77879265       1.02693950       2.82362986       0.16982165      -0.79483438      -0.05675993
W        2.79365168       2.80436186       1.01606982       0.12878415      -0.06550690      -0.78287494
W        0.96398914       2.84667799       2.82913150      -0.59140360       0.02652833      -0.02725313
W        3.68547636       3.75801822       3.74744103       0.14241001       0.08931149       0.15238340
W        5.52951315       5.55913896       5.55158580       0.01991129       0.82339323       0.83026010
6
Lattice="-8.4875e-05 3.742043915 3.708782736 3.643295205 0.066372659 3.695411931 3.671836497 3.653529253 0.050481717" Properties=species:S:1:pos:R:3:forces:R:3 generation=8 composition=W6 config_type=C15_aa source_path=V-Cr-Ti-W-Zr/Fixed_Engrads/vcrtiwzr_fin_engrads/job_gen_6-2024-12-23/W/W6_C15_idx_3026 date_processed=2025-02-12T16:53:55.753371 structure_index=3026 structure_id=21678 energy=-74.72943572998047 stress="-0.04716810807179642 0.0006063001964882997 0.0009185878640927426 0.0006063001964882997 -0.04679675700333375 0.022588439707682942 0.0009185878640927426 0.022588439707682942 -0.04568099362444523" calculation_info="_JSON {\"calculation_id\": 21677, \"calculator\": \"vasp\", \"calculation_source_path\": \"\", \"error\": null, \"status\": \"completed\", \"gpu_count\": null, \"parameters\": {}, \"date_started\": null, \"gpu_memory_mb\": null, \"model_version\": null, \"date_completed\": null, \"runtime_seconds\": null}" parent_id=21678 step=11 variance=0.0072027104906737804 loss=0.0072027104906737804 pbc="T T T"
W        0.96375766       0.97571306       0.97532617       0.13099043      -0.08399092      -0.12271731
W        2.78051812       1.02907852       2.82543104       0.16486506      -0.80404454      -0.06027325
W        2.79540092       2.80615439       1.01826691       0.12312422      -0.06851848      -0.79346550
W        0.96429070       2.84846130       2.83090984      -0.58048576       0.01132310      -0.04355635
W        3.68650310       3.75890292       3.74782237       0.14810996       0.09268425       0.16088089
W        5.53123858       5.55760276       5.55000779       0.01339605       0.85254657       0.85913152
6
Lattice="-8.4875e-05 3.742043915 3.708782736 3.643295205 0.066372659 3.695411931 3.671836497 3.653529253 0.050481717" Properties=species:S:1:pos:R:3:forces:R:3 generation=8 composition=W6 config_type=C15_aa source_path=V-Cr-Ti-W-Zr/Fixed_Engrads/vcrtiwzr_fin_engrads/job_gen_6-2024-12-23/W/W6_C15_idx_3026 date_processed=2025-02-12T16:53:55.753371 structure_index=3026 structure_id=21678 energy=-74.72440185546876 stress="-0.04716810807179642 0.0006063001964882997 0.0009185878640927426 0.0006063001964882997 -0.04679675700333375 0.022588439707682942 0.0009185878640927426 0.022588439707682942 -0.04568099362444523" calculation_info="_JSON {\"calculation_id\": 21677, \"calculator\": \"vasp\", \"calculation_source_path\": \"\", \"error\": null, \"status\": \"completed\", \"gpu_count\": null, \"parameters\": {}, \"date_started\": null, \"gpu_memory_mb\": null, \"model_version\": null, \"date_completed\": null, \"runtime_seconds\": null}" parent_id=21678 step=12 variance=0.0073990244418382645 loss=0.0073990244418382645 pbc="T T T"
W        0.96586117       0.97716725       0.97679887       0.12960416      -0.08919740      -0.12937605
W        2.78207015       1.03088000       2.82704323       0.15881634      -0.80743062      -0.06398679
W        2.79697167       2.80774716       1.02014062       0.11679369      -0.07157030      -0.79829693
W        0.96436333       2.85007285       2.83251473      -0.56513375      -0.00495074      -0.06049093
W        3.68744254       3.75972265       3.74819783       0.15261623       0.09479596       0.16756974
W        5.53278350       5.55620084       5.54858208       0.00730342       0.87835324       0.88458097
6
Lattice="-8.4875e-05 3.742043915 3.708782736 3.643295205 0.066372659 3.695411931 3.671836497 3.653529253 0.050481717" Properties=species:S:1:pos:R:3:forces:R:3 generation=8 composition=W6 config_type=C15_aa source_path=V-Cr-Ti-W-Zr/Fixed_Engrads/vcrtiwzr_fin_engrads/job_gen_6-2024-12-23/W/W6_C15_idx_3026 date_processed=2025-02-12T16:53:55.753371 structure_index=3026 structure_id=21678 energy=-74.7199951171875 stress="-0.04716810807179642 0.0006063001964882997 0.0009185878640927426 0.0006063001964882997 -0.04679675700333375 0.022588439707682942 0.0009185878640927426 0.022588439707682942 -0.04568099362444523" calculation_info="_JSON {\"calculation_id\": 21677, \"calculator\": \"vasp\", \"calculation_source_path\": \"\", \"error\": null, \"status\": \"completed\", \"gpu_count\": null, \"parameters\": {}, \"date_started\": null, \"gpu_memory_mb\": null, \"model_version\": null, \"date_completed\": null, \"runtime_seconds\": null}" parent_id=21678 step=13 variance=0.007682092022150755 loss=0.007682092022150755 pbc="T T T"
W        0.96784467       0.97846949       0.97811284       0.12661713      -0.09442697      -0.13570699
W        2.78347054       1.03237988       2.82848964       0.15165469      -0.80553424      -0.06798066
W        2.79838632       2.80916477       1.02172704       0.10973660      -0.07476579      -0.79792327
W        0.96422865       2.85153428       2.83396777      -0.54568440      -0.02230641      -0.07808670
W        3.68830297       3.76048475       3.74856783       0.15607737       0.09578972       0.17266123
W        5.53416982       5.55491648       5.54729021       0.00159862       0.90124357       0.90703630
6
Lattice="-8.4875e-05 3.742043915 3.708782736 3.643295205 0.066372659 3.695411931 3.671836497 3.653529253 0.050481717" Properties=species:S:1:pos:R:3:forces:R:3 generation=8 composition=W6 config_type=C15_aa source_path=V-Cr-Ti-W-Zr/Fixed_Engrads/vcrtiwzr_fin_engrads/job_gen_6-2024-12-23/W/W6_C15_idx_3026 date_processed=2025-02-12T16:53:55.753371 structure_index=3026 structure_id=21678 energy=-74.716162109375 stress="-0.04716810807179642 0.0006063001964882997 0.0009185878640927426 0.0006063001964882997 -0.04679675700333375 0.022588439707682942 0.0009185878640927426 0.022588439707682942 -0.04568099362444523" calculation_info="_JSON {\"calculation_id\": 21677, \"calculator\": \"vasp\", \"calculation_source_path\": \"\", \"error\": null, \"status\": \"completed\", \"gpu_count\": null, \"parameters\": {}, \"date_started\": null, \"gpu_memory_mb\": null, \"model_version\": null, \"date_completed\": null, \"runtime_seconds\": null}" parent_id=21678 step=14 variance=0.008040552958846092 loss=0.008040552958846092 pbc="T T T"
W        0.96971748       0.97963562       0.97928422       0.12234471      -0.09958313      -0.14165172
W        2.78473761       1.03361064       2.82979026       0.14335309      -0.79883546      -0.07234517
W        2.79966386       2.81042842       1.02305732       0.10188007      -0.07820129      -0.79281604
W        0.96390237       2.85286367       2.83528710      -0.52241313      -0.04072328      -0.09637948
W        3.68909230       3.76119617       3.74893345       0.15859857       0.09578454       0.17632821
W        5.53541591       5.55373621       5.54611665      -0.00376331       0.92155850       0.92686427
6
Lattice="-8.4875e-05 3.742043915 3.708782736 3.643295205 0.066372659 3.695411931 3.671836497 3.653529253 0.050481717" Properties=species:S:1:pos:R:3:forces:R:3 generation=8 composition=W6 config_type=C15_aa source_path=V-Cr-Ti-W-Zr/Fixed_Engrads/vcrtiwzr_fin_engrads/job_gen_6-2024-12-23/W/W6_C15_idx_3026 date_processed=2025-02-12T16:53:55.753371 structure_index=3026 structure_id=21678 energy=-74.71285247802734 stress="-0.04716810807179642 0.0006063001964882997 0.0009185878640927426 0.0006063001964882997 -0.04679675700333375 0.022588439707682942 0.0009185878640927426 0.022588439707682942 -0.04568099362444523" calculation_info="_JSON {\"calculation_id\": 21677, \"calculator\": \"vasp\", \"calculation_source_path\": \"\", \"error\": null, \"status\": \"completed\", \"gpu_count\": null, \"parameters\": {}, \"date_started\": null, \"gpu_memory_mb\": null, \"model_version\": null, \"date_completed\": null, \"runtime_seconds\": null}" parent_id=21678 step=15 variance=0.008468414656817913 loss=0.008468414656817913 pbc="T T T"
W        0.97148582       0.98067913       0.98032674       0.11709458      -0.10456542      -0.14714745
W        2.78588701       1.03459889       2.83096263       0.13385010      -0.78770298      -0.07717431
W        2.80082070       2.81155732       1.02415777       0.09314238      -0.08198816      -0.78334516
W        0.96339710       2.85407647       2.83648813      -0.49552268      -0.06021899      -0.11540578
W        3.68981817       3.76186355       3.74929663       0.16025913       0.09487536       0.17870995
W        5.53653761       5.55264899       5.54504873      -0.00882337       0.93960029       0.94436264
6
Lattice="-8.4875e-05 3.742043915 3.708782736 3.643295205 0.066372659 3.695411931 3.671836497 3.653529253 0.050481717" Properties=species:S:1:pos:R:3:forces:R:3 generation=8 composition=W6 config_type=C15_aa source_path=V-Cr-Ti-W-Zr/Fixed_Engrads/vcrtiwzr_fin_engrads/job_gen_6-2024-12-23/W/W6_C15_idx_3026 date_processed=2025-02-12T16:53:55.753371 structure_index=3026 structure_id=21678 energy=-74.71002044677735 stress="-0.04716810807179642 0.0006063001964882997 0.0009185878640927426 0.0006063001964882997 -0.04679675700333375 0.022588439707682942 0.0009185878640927426 0.022588439707682942 -0.04568099362444523" calculation_info="_JSON {\"calculation_id\": 21677, \"calculator\": \"vasp\", \"calculation_source_path\": \"\", \"error\": null, \"status\": \"completed\", \"gpu_count\": null, \"parameters\": {}, \"date_started\": null, \"gpu_memory_mb\": null, \"model_version\": null, \"date_completed\": null, \"runtime_seconds\": null}" parent_id=21678 step=16 variance=0.008960980921983719 loss=0.008960980921983719 pbc="T T T"
W        0.97314703       0.98161111       0.98125148       0.11127357      -0.10922637      -0.15206937
W        2.78693221       1.03536619       2.83202148       0.12301856      -0.77238238      -0.08264868
W        2.80187045       2.81256688       1.02504806       0.08334200      -0.08632047      -0.76975060
W        0.96272075       2.85518594       2.83758402      -0.46508199      -0.08084520      -0.13524294
W        3.69048751       3.76249294       3.74965993       0.16109715       0.09313299       0.17990689
W        5.53754809       5.55164377       5.54407460      -0.01364916       0.95564157       0.95980465
6