6
Lattice="-0.318724893 3.429090963 3.765949766 3.764505556 -0.20226948 3.907602713 3.8672112 3.660840266 0.119583264" Properties=species:S:1:pos:R:3:forces:R:3 batch_id=T generation=6 composition=V6 config_type=C15 source_path=V-Cr-Ti-W-Zr/Fixed_Engrads/vcrtiwzr_fin_engrads/job_gen_6-2024-12-23/V/V6_C15_idx_3100 temperature=T date_processed=2025-01-03T17:40:32.068977 structure_type=T structure_index=3100 adversarial_step=T structure_id=8409 energy=-50.111633 stress="0.18117068132916797 -0.0017920059266414681 -0.001855918980090513 -0.0017920059266414681 0.16309201907435547 -0.004497150879908783 -0.001855918980090513 -0.004497150879908783 0.16651122387916947" calculation_info="_JSON {\"calculation_id\": 8409, \"calculator\": \"vasp\", \"calculation_source_path\": \"\", \"error\": null, \"status\": \"completed\", \"gpu_count\": null, \"parameters\": {}, \"date_started\": null, \"gpu_memory_mb\": null, \"model_version\": null, \"date_completed\": null, \"runtime_seconds\": null}" pbc="T T T"
V        0.91412000       0.86096000       0.97414000       0.00000000       0.00000000       0.00000000
V        2.79638000       0.75982000       2.92794000       0.00000000       0.00000000       0.00000000
V        2.84773000       2.69138000       1.03393000       0.00000000       0.00000000       0.00000000
V        0.75476000       2.57550000       2.85712000       0.00000000       0.00000000       0.00000000
V        3.65650000       3.44383000       3.89657000      -0.02719900       0.00543800      -0.00056300
V        5.48474000       5.16575000       5.84485000       0.02719900      -0.00543800       0.00056300
6
Lattice="-0.318724893 3.429090963 3.765949766 3.764505556 -0.20226948 3.907602713 3.8672112 3.660840266 0.119583264" Properties=species:S:1:pos:R:3:forces:R:3 batch_id=T generation=8 composition=V6 config_type=C15_aa source_path=V-Cr-Ti-W-Zr/Fixed_Engrads/vcrtiwzr_fin_engrads/job_gen_6-2024-12-23/V/V6_C15_idx_3100 temperature=T date_processed=2025-01-03T17:40:32.068977 structure_type=T structure_index=3100 adversarial_step=T structure_id=8409 energy=-50.10779876708985 stress="0.18117068132916797 -0.0017920059266414681 -0.001855918980090513 -0.0017920059266414681 0.16309201907435547 -0.004497150879908783 -0.001855918980090513 -0.004497150879908783 0.16651122387916947" calculation_info="_JSON {\"calculation_id\": 8409, \"calculator\": \"vasp\", \"calculation_source_path\": \"\", \"error\": null, \"status\": \"completed\", \"gpu_count\": null, \"parameters\": {}, \"date_started\": null, \"gpu_memory_mb\": null, \"model_version\": null, \"date_completed\": null, \"runtime_seconds\": null}" parent_id=8409 step=0 variance=0.44028303027153015 loss=0.44028303027153015 pbc="T T T"
V        0.91412000       0.86096000       0.97414000       0.00001710      -0.00000837       0.00000661
V        2.79638000       0.75982000       2.92794000      -0.00001723       0.00001302       0.00000928
V        2.84773000       2.69138000       1.03393000      -0.00000608      -0.00000936       0.00000833
V        0.75476000       2.57550000       2.85712000       0.00000322       0.00001595      -0.00001651
V        3.65650000       3.44383000       3.89657000       0.00884141      -0.00991117      -0.00634999
V        5.48474000       5.16575000       5.84485000      -0.00883845       0.00989993       0.00634225
6
Lattice="-0.318724893 3.429090963 3.765949766 3.764505556 -0.20226948 3.907602713 3.8672112 3.660840266 0.119583264" Properties=species:S:1:pos:R:3:forces:R:3 batch_id=T generation=8 composition=V6 config_type=C15_aa source_path=V-Cr-Ti-W-Zr/Fixed_Engrads/vcrtiwzr_fin_engrads/job_gen_6-2024-12-23/V/V6_C15_idx_3100 temperature=T date_processed=2025-01-03T17:40:32.068977 structure_type=T structure_index=3100 adversarial_step=T structure_id=8409 energy=-50.10365753173828 stress="0.18117068132916797 -0.0017920059266414681 -0.001855918980090513 -0.0017920059266414681 0.16309201907435547 -0.004497150879908783 -0.001855918980090513 -0.004497150879908783 0.16651122387916947" calculation_info="_JSON {\"calculation_id\": 8409, \"calculator\": \"vasp\", \"calculation_source_path\": \"\", \"error\": null, \"status\": \"completed\", \"gpu_count\": null, \"parameters\": {}, \"date_started\": null, \"gpu_memory_mb\": null, \"model_version\": null, \"date_completed\": null, \"runtime_seconds\": null}" parent_id=8409 step=1 variance=0.28228843212127686 loss=0.28228843212127686 pbc="T T T"
V        0.90412000       0.85096000       0.96414000       0.05705553       0.05574530       0.06278209
V        2.80638000       0.76982000       2.93794000      -0.04905630      -0.03311601      -0.04881469
V        2.85773000       2.70138000       1.04393000      -0.05453991      -0.04628902      -0.02959656
V        0.76476000       2.58550000       2.86712000      -0.02916829      -0.05951592      -0.06439202
V        3.64650000       3.43383000       3.88657000       0.04954603       0.03512429       0.03695584
V        5.47474000       5.15575000       5.83485000       0.02616285       0.04805138       0.04306538
6
Lattice="-0.318724893 3.429090963 3.765949766 3.764505556 -0.20226948 3.907602713 3.8672112 3.660840266 0.119583264" Properties=species:S:1:pos:R:3:forces:R:3 batch_id=T generation=8 composition=V6 config_type=C15_aa source_path=V-Cr-Ti-W-Zr/Fixed_Engrads/vcrtiwzr_fin_engrads/job_gen_6-2024-12-23/V/V6_C15_idx_3100 temperature=T date_processed=2025-01-03T17:40:32.068977 structure_type=T structure_index=3100 adversarial_step=T structure_id=8409 energy=-50.09622573852539 stress="0.18117068132916797 -0.0017920059266414681 -0.001855918980090513 -0.0017920059266414681 0.16309201907435547 -0.004497150879908783 -0.001855918980090513 -0.004497150879908783 0.16651122387916947" calculation_info="_JSON {\"calculation_id\": 8409, \"calculator\": \"vasp\", \"calculation_source_path\": \"\", \"error\": null, \"status\": \"completed\", \"gpu_count\": null, \"parameters\": {}, \"date_started\": null, \"gpu_memory_mb\": null, \"model_version\": null, \"date_completed\": null, \"runtime_seconds\": null}" parent_id=8409 step=2 variance=0.1541152149438858 loss=0.1541152149438858 pbc="T T T"
V        0.89731397       0.84418143       0.95732157       0.09690198       0.09523445       0.10718920
V        2.81305559       0.77651465       2.94460066      -0.08191639      -0.05474176      -0.08140144
V        2.86441359       2.70804825       1.05061927      -0.09142406      -0.07776441      -0.04893293
V        0.77140349       2.59223050       2.87400314      -0.04767568      -0.10033910      -0.10894392
V        3.64007436       3.42716925       3.87996314       0.07826742       0.06833179       0.06861866
V        5.46797476       5.14908234       5.82818267       0.04584675       0.06927905       0.06347039
6
Lattice="-0.318724893 3.429090963 3.765949766 3.764505556 -0.20226948 3.907602713 3.8672112 3.660840266 0.119583264" Properties=species:S:1:pos:R:3:forces:R:3 batch_id=T generation=8 composition=V6 config_type=C15_aa source_path=V-Cr-Ti-W-Zr/Fixed_Engrads/vcrtiwzr_fin_engrads/job_gen_6-2024-12-23/V/V6_C15_idx_3100 temperature=T date_processed=2025-01-03T17:40:32.068977 structure_type=T structure_index=3100 adversarial_step=T structure_id=8409 energy=-50.08796691894531 stress="0.18117068132916797 -0.0017920059266414681 -0.001855918980090513 -0.0017920059266414681 0.16309201907435547 -0.004497150879908783 -0.001855918980090513 -0.004497150879908783 0.16651122387916947" calculation_info="_JSON {\"calculation_id\": 8409, \"calculator\": \"vasp\", \"calculation_source_path\": \"\", \"error\": null, \"status\": \"completed\", \"gpu_count\": null, \"parameters\": {}, \"date_started\": null, \"gpu_memory_mb\": null, \"model_version\": null, \"date_completed\": null, \"runtime_seconds\": null}" parent_id=8409 step=3 variance=0.11333990842103958 loss=0.11333990842103958 pbc="T T T"
V        0.89198778       0.83889755       0.95199360       0.12909755       0.12715819       0.14274517
V        2.81821442       0.78169031       2.94973757      -0.10751395      -0.07088699      -0.10691217
V        2.86956978       2.71317001       1.05579576      -0.12038658      -0.10261850      -0.06351672
V        0.77652494       2.59735485       2.87913125      -0.06129291      -0.13183063      -0.14290901
V        3.63522404       3.42210391       3.87491715       0.10109743       0.09496370       0.09388371
V        5.46271705       5.14390025       5.82301492       0.05899842       0.08321428       0.07670909
6
Lattice="-0.318724893 3.429090963 3.765949766 3.764505556 -0.20226948 3.907602713 3.8672112 3.660840266 0.119583264" Properties=species:S:1:pos:R:3:forces:R:3 batch_id=T generation=8 composition=V6 config_type=C15_aa source_path=V-Cr-Ti-W-Zr/Fixed_Engrads/vcrtiwzr_fin_engrads/job_gen_6-2024-12-23/V/V6_C15_idx_3100 temperature=T date_processed=2025-01-03T17:40:32.068977 structure_type=T structure_index=3100 adversarial_step=T structure_id=8409 energy=-50.07954864501953 stress="0.18117068132916797 -0.0017920059266414681 -0.001855918980090513 -0.0017920059266414681 0.16309201907435547 -0.004497150879908783 -0.001855918980090513 -0.004497150879908783 0.16651122387916947" calculation_info="_JSON {\"calculation_id\": 8409, \"calculator\": \"vasp\", \"calculation_source_path\": \"\", \"error\": null, \"status\": \"completed\", \"gpu_count\": null, \"parameters\": {}, \"date_started\": null, \"gpu_memory_mb\": null, \"model_version\": null, \"date_completed\": null, \"runtime_seconds\": null}" parent_id=8409 step=4 variance=0.10176124423742294 loss=0.10176124423742294 pbc="T T T"
V        0.88761088       0.83456398       0.94761837       0.15638369       0.15440215       0.17291580
V        2.82244647       0.78592387       2.95394836      -0.12868597      -0.08353017      -0.12799239
V        2.87379011       2.71735638       1.06003552      -0.14446709      -0.12338819      -0.07503314
V        0.78071855       2.60153163       2.88334347      -0.07180877      -0.15783224      -0.17102750
V        3.63125712       3.41798885       3.87078593       0.12023990       0.11733796       0.11516279
V        5.45841533       5.13964677       5.81878414       0.06833817       0.09301052       0.08597438
6
Lattice="-0.318724893 3.429090963 3.765949766 3.764505556 -0.20226948 3.907602713 3.8672112 3.660840266 0.119583264" Properties=species:S:1:pos:R:3:forces:R:3 batch_id=T generation=8 composition=V6 config_type=C15_aa source_path=V-Cr-Ti-W-Zr/Fixed_Engrads/vcrtiwzr_fin_engrads/job_gen_6-2024-12-23/V/V6_C15_idx_3100 temperature=T date_processed=2025-01-03T17:40:32.068977 structure_type=T structure_index=3100 adversarial_step=T structure_id=8409 energy=-50.07125396728516 stress="0.18117068132916797 -0.0017920059266414681 -0.001855918980090513 -0.0017920059266414681 0.16309201907435547 -0.004497150879908783 -0.001855918980090513 -0.004497150879908783 0.16651122387916947" calculation_info="_JSON {\"calculation_id\": 8409, \"calculator\": \"vasp\", \"calculation_source_path\": \"\", \"error\": null, \"status\": \"completed\", \"gpu_count\": null, \"parameters\": {}, \"date_started\": null, \"gpu_memory_mb\": null, \"model_version\": null, \"date_completed\": null, \"runtime_seconds\": null}" parent_id=8409 step=5 variance=0.09617312997579575 loss=0.09617312997579575 pbc="T T T"
V        0.88390694       0.83090134       0.94391680       0.18012413       0.17835601       0.19936718
V        2.82602661       0.78949795       2.95750873      -0.14671317      -0.09371404      -0.14586434
V        2.87735610       2.72089073       1.06361776      -0.16509047      -0.14124683      -0.08434589
V        0.78425951       2.60506774       2.88699978      -0.08010225      -0.18014029      -0.19541436
V        3.62790611       3.41452306       3.86729047       0.13659774       0.13658665       0.13351259
V        5.45478210       5.13605003       5.81521170       0.07518403       0.10015844       0.09274481
6
Lattice="-0.318724893 3.429090963 3.765949766 3.764505556 -0.20226948 3.907602713 3.8672112 3.660840266 0.119583264" Properties=species:S:1:pos:R:3:forces:R:3 batch_id=T generation=8 composition=V6 config_type=C15_aa source_path=V-Cr-Ti-W-Zr/Fixed_Engrads/vcrtiwzr_fin_engrads/job_gen_6-2024-12-23/V/V6_C15_idx_3100 temperature=T date_processed=2025-01-03T17:40:32.068977 structure_type=T structure_index=3100 adversarial_step=T structure_id=8409 energy=-50.06323013305664 stress="0.18117068132916797 -0.0017920059266414681 -0.001855918980090513 -0.0017920059266414681 0.16309201907435547 -0.004497150879908783 -0.001855918980090513 -0.004497150879908783 0.16651122387916947" calculation_info="_JSON {\"calculation_id\": 8409, \"calculator\": \"vasp\", \"calculation_source_path\": \"\", \"error\": null, \"status\": \"completed\", \"gpu_count\": null, \"parameters\": {}, \"date_started\": null, \"gpu_memory_mb\": null, \"model_version\": null, \"date_completed\": null, \"runtime_seconds\": null}" parent_id=8409 step=6 variance=0.0925382748246193 loss=0.0925382748246193 pbc="T T T"
V        0.88071283       0.82774504       0.94072438       0.20110503       0.19977462       0.22297676
V        2.82911368       0.79257535       2.96057713      -0.16234480      -0.10206322      -0.16127825
V        2.88042909       2.72393406       1.06670405      -0.18307540      -0.15686476      -0.09198922
V        0.78730705       2.60812739       2.89025540      -0.08670531      -0.19970137      -0.21705127
V        3.62502077       3.41154143       3.86427435       0.15073214       0.15336056       0.14953026
V        5.45165158       5.13295063       5.81213584       0.08028839       0.10549420       0.09781171
6
Lattice="-0.318724893 3.429090963 3.765949766 3.764505556 -0.20226948 3.907602713 3.8672112 3.660840266 0.119583264" Properties=species:S:1:pos:R:3:forces:R:3 batch_id=T generation=8 composition=V6 config_type=C15_aa source_path=V-Cr-Ti-W-Zr/Fixed_Engrads/vcrtiwzr_fin_engrads/job_gen_6-2024-12-23/V/V6_C15_idx_3100 temperature=T date_processed=2025-01-03T17:40:32.068977 structure_type=T structure_index=3100 adversarial_step=T structure_id=8409 energy=-50.055548095703124 stress="0.18117068132916797 -0.0017920059266414681 -0.001855918980090513 -0.0017920059266414681 0.16309201907435547 -0.004497150879908783 -0.001855918980090513 -0.004497150879908783 0.16651122387916947" calculation_info="_JSON {\"calculation_id\": 8409, \"calculator\": \"vasp\", \"calculation_source_path\": \"\", \"error\": null, \"status\": \"completed\", \"gpu_count\": null, \"parameters\": {}, \"date_started\": null, \"gpu_memory_mb\": null, \"model_version\": null, \"date_completed\": null, \"runtime_seconds\": null}" parent_id=8409 step=7 variance=0.0898294448852539 loss=0.0898294448852539 pbc="T T T"
V        0.87792260       0.82498916       0.93793500       0.21983771       0.21911982       0.24426882
V        2.83181047       0.79526066       2.96325605      -0.17606062      -0.10898860      -0.17472252
V        2.88311255       2.72658926       1.06939835      -0.19894135      -0.17067122      -0.09833509
V        0.78996409       2.61081162       2.89319806      -0.09201548      -0.21706264      -0.23649867
V        3.62250454       3.40894032       3.86163741       0.16304699       0.16808926       0.16361591
V        5.44891729       5.13024514       5.80945234       0.08413270       0.10951334       0.10167162
6
Lattice="-0.318724893 3.429090963 3.765949766 3.764505556 -0.20226948 3.907602713 3.8672112 3.660840266 0.119583264" Properties=species:S:1:pos:R:3:forces:R:3 batch_id=T generation=8 composition=V6 config_type=C15_aa source_path=V-Cr-Ti-W-Zr/Fixed_Engrads/vcrtiwzr_fin_engrads/job_gen_6-2024-12-23/V/V6_C15_idx_3100 temperature=T date_processed=2025-01-03T17:40:32.068977 structure_type=T structure_index=3100 adversarial_step=T structure_id=8409 energy=-50.04824523925781 stress="0.18117068132916797 -0.0017920059266414681 -0.001855918980090513 -0.0017920059266414681 0.16309201907435547 -0.004497150879908783 -0.001855918980090513 -0.004497150879908783 0.16651122387916947" calculation_info="_JSON {\"calculation_id\": 8409, \"calculator\": \"vasp\", \"calculation_source_path\": \"\", \"error\": null, \"status\": \"completed\", \"gpu_count\": null, \"parameters\": {}, \"date_started\": null, \"gpu_memory_mb\": null, \"model_version\": null, \"date_completed\": null, \"runtime_seconds\": null}" parent_id=8409 step=8 variance=0.08767852187156677 loss=0.08767852187156677 pbc="T T T"
V        0.87546258       0.82256010       0.93547480       0.23667231       0.23670092       0.26360840
V        2.83418827       0.79762627       2.96561654      -0.18820429      -0.11477709      -0.18655196
V        2.88547811       2.72892754       1.07177281      -0.21305633      -0.18297236      -0.10362760
V        0.79230240       2.61319040       2.89588479      -0.09628306      -0.23262791      -0.25414509
V        3.62029015       3.40664865       3.85931024       0.17382529       0.18110678       0.17607656
V        5.44650595       5.12786166       5.80708903       0.08704606       0.11256979       0.10463972
6
Lattice="-0.318724893 3.429090963 3.765949766 3.764505556 -0.20226948 3.907602713 3.8672112 3.660840266 0.119583264" Properties=species:S:1:pos:R:3:forces:R:3 batch_id=T generation=8 composition=V6 config_type=C15_aa source_path=V-Cr-Ti-W-Zr/Fixed_Engrads/vcrtiwzr_fin_engrads/job_gen_6-2024-12-23/V/V6_C15_idx_3100 temperature=T date_processed=2025-01-03T17:40:32.068977 structure_type=T structure_index=3100 adversarial_step=T structure_id=8409 energy=-50.041342163085936 stress="0.18117068132916797 -0.0017920059266414681 -0.001855918980090513 -0.0017920059266414681 0.16309201907435547 -0.004497150879908783 -0.001855918980090513 -0.004497150879908783 0.16651122387916947" calculation_info="_JSON {\"calculation_id\": 8409, \"calculator\": \"vasp\", \"calculation_source_path\": \"\", \"error\": null, \"status\": \"completed\", \"gpu_count\": null, \"parameters\": {}, \"date_started\": null, \"gpu_memory_mb\": null, \"model_version\": null, \"date_completed\": null, \"runtime_seconds\": null}" parent_id=8409 step=9 variance=0.08591531962156296 loss=0.08591531962156296 pbc="T T T"
V        0.87327877       0.82040402       0.93328986       0.25187334       0.25275788       0.28125831
V        2.83629931       0.79972503       2.96771070      -0.19901900      -0.11964674      -0.19702205
V        2.88757803       2.73100084       1.07388012      -0.22569287      -0.19398960      -0.10806236
V        0.79437444       2.61531343       2.89835525      -0.09972329      -0.24666950      -0.27024978
V        3.61832833       3.40461488       3.85724210       0.18331072       0.19264761       0.18714336
V        5.44436424       5.12574758       5.80499329       0.08925103       0.11490025       0.10693254
6
Lattice="-0.318724893 3.429090963 3.765949766 3.764505556 -0.20226948 3.907602713 3.8672112 3.660840266 0.119583264" Properties=species:S:1:pos:R:3:forces:R:3 batch_id=T generation=8 composition=V6 config_type=C15_aa source_path=V-Cr-Ti-W-Zr/Fixed_Engrads/vcrtiwzr_fin_engrads/job_gen_6-2024-12-23/V/V6_C15_idx_3100 temperature=T date_processed=2025-01-03T17:40:32.068977 structure_type=T structure_index=3100 adversarial_step=T structure_id=8409 energy=-50.03483963012695 stress="0.18117068132916797 -0.0017920059266414681 -0.001855918980090513 -0.0017920059266414681 0.16309201907435547 -0.004497150879908783 -0.001855918980090513 -0.004497150879908783 0.16651122387916947" calculation_info="_JSON {\"calculation_id\": 8409, \"calculator\": \"vasp\", \"calculation_source_path\": \"\", \"error\": null, \"status\": \"completed\", \"gpu_count\": null, \"parameters\": {}, \"date_started\": null, \"gpu_memory_mb\": null, \"model_version\": null, \"date_completed\": null, \"runtime_seconds\": null}" parent_id=8409 step=10 variance=0.08444592356681824 loss=0.08444592356681824 pbc="T T T"
V        0.87132984       0.81847984       0.93133903       0.26564521       0.26746187       0.29742283
V        2.83818338       0.80159709       2.96957819      -0.20869692      -0.12376702      -0.20632759
V        2.88945206       2.73284868       1.07576043      -0.23705240      -0.20389076      -0.11180099
V        0.79622009       2.61721866       2.90064054      -0.10248099      -0.25940639      -0.28503162
V        3.61658146       3.40279991       3.85539428       0.19168045       0.20292778       0.19701317
V        5.44245146       5.12386267       5.80312493       0.09090458       0.11667451       0.10872421
6
Lattice="-0.318724893 3.429090963 3.765949766 3.764505556 -0.20226948 3.907602713 3.8672112 3.660840266 0.119583264" Properties=species:S:1:pos:R:3:forces:R:3 batch_id=T generation=8 composition=V6 config_type=C15_aa source_path=V-Cr-Ti-W-Zr/Fixed_Engrads/vcrtiwzr_fin_engrads/job_gen_6-2024-12-23/V/V6_C15_idx_3100 temperature=T date_processed=2025-01-03T17:40:32.068977 structure_type=T structure_index=3100 adversarial_step=T structure_id=8409 energy=-50.02873077392578 stress="0.18117068132916797 -0.0017920059266414681 -0.001855918980090513 -0.0017920059266414681 0.16309201907435547 -0.004497150879908783 -0.001855918980090513 -0.004497150879908783 0.16651122387916947" calculation_info="_JSON {\"calculation_id\": 8409, \"calculator\": \"vasp\", \"calculation_source_path\": \"\", \"error\": null, \"status\": \"completed\", \"gpu_count\": null, \"parameters\": {}, \"date_started\": null, \"gpu_memory_mb\": null, \"model_version\": null, \"date_completed\": null, \"runtime_seconds\": null}" parent_id=8409 step=11 variance=0.08321225643157959 loss=0.08321225643157959 pbc="T T T"
V        0.86958341       0.81675552       0.92958997       0.27815056       0.28096253       0.31227070
V        2.83987179       0.80327407       2.97125016      -0.21738772      -0.12726267      -0.21462655
V        2.89113147       2.73450220       1.07744534      -0.24729745      -0.21282062      -0.11494883
V        0.79787084       2.61893615       2.90276399      -0.10468398      -0.27100438      -0.29865560
V        3.61502016       3.40117315       3.85373640       0.19907913       0.21210270       0.20583114
V        5.44073577       5.12217537       5.80145242       0.09213943       0.11802256       0.11012912
6
Lattice="-0.318724893 3.429090963 3.765949766 3.764505556 -0.20226948 3.907602713 3.8672112 3.660840266 0.119583264" Properties=species:S:1:pos:R:3:forces:R:3 batch_id=T generation=8 composition=V6 config_type=C15_aa source_path=V-Cr-Ti-W-Zr/Fixed_Engrads/vcrtiwzr_fin_engrads/job_gen_6-2024-12-23/V/V6_C15_idx_3100 temperature=T date_processed=2025-01-03T17:40:32.068977 structure_type=T structure_index=3100 adversarial_step=T structure_id=8409 energy=-50.023014068603516 stress="0.18117068132916797 -0.0017920059266414681 -0.001855918980090513 -0.0017920059266414681 0.16309201907435547 -0.004497150879908783 -0.001855918980090513 -0.004497150879908783 0.16651122387916947" calculation_info="_JSON {\"calculation_id\": 8409, \"calculator\": \"vasp\", \"calculation_source_path\": \"\", \"error\": null, \"status\": \"completed\", \"gpu_count\": null, \"parameters\": {}, \"date_started\": null, \"gpu_memory_mb\": null, \"model_version\": null, \"date_completed\": null, \"runtime_seconds\": null}" parent_id=8409 step=12 variance=0.08217675238847733 loss=0.08217675238847733 pbc="T T T"
V        0.86801333       0.81520525       0.92801663       0.28952467       0.29337645       0.32593349
V        2.84138973       0.80478132       2.97275174      -0.22521658      -0.13023858      -0.22205000
V        2.89264144       2.73598635       1.07896019      -0.25656566      -0.22088523      -0.11760416
V        0.79935200       2.62049005       2.90474637      -0.10642479      -0.28160501      -0.31125408
V        3.61362062       3.39971000       3.85224400       0.20564370       0.22031391       0.21374097
V        5.43919164       5.12066036       5.79995055       0.09303863       0.11903840       0.11123381
6
Lattice="-0.318724893 3.429090963 3.765949766 3.764505556 -0.20226948 3.907602713 3.8672112 3.660840266 0.119583264" Properties=species:S:1:pos:R:3:forces:R:3 batch_id=T generation=8 composition=V6 config_type=C15_aa source_path=V-Cr-Ti-W-Zr/Fixed_Engrads/vcrtiwzr_fin_engrads/job_gen_6-2024-12-23/V/V6_C15_idx_3100 temperature=T date_processed=2025-01-03T17:40:32.068977 structure_type=T structure_index=3100 adversarial_step=T structure_id=8409 energy=-50.0176643371582 stress="0.18117068132916797 -0.0017920059266414681 -0.001855918980090513 -0.0017920059266414681 0.16309201907435547 -0.004497150879908783 -0.001855918980090513 -0.004497150879908783 0.16651122387916947" calculation_info="_JSON {\"calculation_id\": 8409, \"calculator\": \"vasp\", \"calculation_source_path\": \"\", \"error\": null, \"status\": \"completed\", \"gpu_count\": null, \"parameters\": {}, \"date_started\": null, \"gpu_memory_mb\": null, \"model_version\": null, \"date_completed\": null, \"runtime_seconds\": null}" parent_id=8409 step=13 variance=0.08130606263875961 loss=0.08130606263875961 pbc="T T T"
V        0.86659796       0.81380755       0.92659750       0.29988474       0.30481488       0.33853155
V        2.84275786       0.80613968       2.97410354      -0.23228736      -0.13278177      -0.22869687
V        2.89400262       2.73732148       1.08032584      -0.26496440      -0.22818646      -0.11984809
V        0.80068429       2.62189981       2.90660238      -0.10777529      -0.29132873      -0.32294989
V        3.61236333       3.39839028       3.85089691       0.21146898       0.22768219       0.22085147
V        5.43779787       5.11929660       5.79859840       0.09367328       0.11979991       0.11211193
6
Lattice="-0.318724893 3.429090963 3.765949766 3.764505556 -0.20226948 3.907602713 3.8672112 3.660840266 0.119583264" Properties=species:S:1:pos:R:3:forces:R:3 batch_id=T generation=8 composition=V6 config_type=C15_aa source_path=V-Cr-Ti-W-Zr/Fixed_Engrads/vcrtiwzr_fin_engrads/job_gen_6-2024-12-23/V/V6_C15_idx_3100 temperature=T date_processed=2025-01-03T17:40:32.068977 structure_type=T structure_index=3100 adversarial_step=T structure_id=8409 energy=-50.01266784667969 stress="0.18117068132916797 -0.0017920059266414681 -0.001855918980090513 -0.0017920059266414681 0.16309201907435547 -0.004497150879908783 -0.001855918980090513 -0.004497150879908783 0.16651122387916947" calculation_info="_JSON {\"calculation_id\": 8409, \"calculator\": \"vasp\", \"calculation_source_path\": \"\", \"error\": null, \"status\": \"completed\", \"gpu_count\": null, \"parameters\": {}, \"date_started\": null, \"gpu_memory_mb\": null, \"model_version\": null, \"date_completed\": null, \"runtime_seconds\": null}" parent_id=8409 step=14 variance=0.08057720214128494 loss=0.08057720214128494 pbc="T T T"
V        0.86531940       0.81254481       0.92531473       0.30933160       0.31535941       0.35016122
V        2.84399355       0.80736655       2.97532284      -0.23868027      -0.13495600      -0.23466125
V        2.89523222       2.73852484       1.08155971      -0.27258882      -0.23479895      -0.12174046
V        0.80188512       2.62318176       2.90834479      -0.10881014      -0.30026266      -0.33382016
V        3.61123202       3.39719722       3.84967823       0.21664646       0.23429927       0.22725233
V        5.43653699       5.11806673       5.79737872       0.09410106       0.12035906       0.11280841
6
Lattice="-0.318724893 3.429090963 3.765949766 3.764505556 -0.20226948 3.907602713 3.8672112 3.660840266 0.119583264" Properties=species:S:1:pos:R:3:forces:R:3 batch_id=T generation=8 composition=V6 config_type=C15_aa source_path=V-Cr-Ti-W-Zr/Fixed_Engrads/vcrtiwzr_fin_engrads/job_gen_6-2024-12-23/V/V6_C15_idx_3100 temperature=T date_processed=2025-01-03T17:40:32.068977 structure_type=T structure_index=3100 adversarial_step=T structure_id=8409 energy=-50.00801239013672 stress="0.18117068132916797 -0.0017920059266414681 -0.001855918980090513 -0.0017920059266414681 0.16309201907435547 -0.004497150879908783 -0.001855918980090513 -0.004497150879908783 0.16651122387916947" calculation_info="_JSON {\"calculation_id\": 8409, \"calculator\": \"vasp\", \"calculation_source_path\": \"\", \"error\": null, \"status\": \"completed\", \"gpu_count\": null, \"parameters\": {}, \"date_started\": null, \"gpu_memory_mb\": null, \"model_version\": null, \"date_completed\": null, \"runtime_seconds\": null}" parent_id=8409 step=15 variance=0.07996860891580582 loss=0.07996860891580582 pbc="T T T"
V        0.86416243       0.81140202       0.92415324       0.31794614       0.32507980       0.36090302
V        2.84511145       0.80847665       2.97642418      -0.24447410      -0.13681945      -0.24002218
V        2.89634491       2.73961093       1.08267659      -0.27951971      -0.24079899      -0.12333437
V        0.80296906       2.62434958       2.90998362      -0.10957823      -0.30848265      -0.34394592
V        3.61021279       3.39611658       3.84857372       0.22125447       0.24026041       0.23302925
V        5.43539404       5.11695594       5.79627676       0.09437153       0.12076093       0.11337014
6