2
Lattice="2.975581428 -0.116603642 -0.068045716 -1.659624593 2.651481722 -0.071909727 0.280415623 0.083199894 4.753079805" Properties=species:S:1:pos:R:3:forces:R:3 generation=6 composition=W2 config_type=hcp source_path=V-Cr-Ti-W-Zr/Fixed_Engrads/vcrtiwzr_fin_engrads/job_gen_6-2024-12-23/W/W2_hcp_idx_2703 date_processed=2025-02-12T16:53:32.468885 structure_index=2703 structure_id=21218 energy=-24.540243 stress="0.18749021556063392 0.04321352533869155 -0.010261103418043337 0.04321352533869155 0.17896754095489548 -0.011126220273454637 -0.010261103418043337 -0.011126220273454637 0.07579795412278681" calculation_info="_JSON {\"calculation_id\": 21217, \"calculator\": \"vasp\", \"calculation_source_path\": \"\", \"error\": null, \"status\": \"completed\", \"gpu_count\": null, \"parameters\": {}, \"date_started\": null, \"gpu_memory_mb\": null, \"model_version\": null, \"date_completed\": null, \"runtime_seconds\": null}" pbc="T T T"
W        0.00000000       0.00000000       0.00000000       0.37546500      -0.00181900      -0.08308700
W        0.02565000       1.77039000       2.30592000      -0.37546500       0.00181900       0.08308700
2
Lattice="2.975581428 -0.116603642 -0.068045716 -1.659624593 2.651481722 -0.071909727 0.280415623 0.083199894 4.753079805" Properties=species:S:1:pos:R:3:forces:R:3 generation=8 composition=W2 config_type=hcp_aa source_path=V-Cr-Ti-W-Zr/Fixed_Engrads/vcrtiwzr_fin_engrads/job_gen_6-2024-12-23/W/W2_hcp_idx_2703 date_processed=2025-02-12T16:53:32.468885 structure_index=2703 structure_id=21218 energy=-24.81433563232422 stress="0.18749021556063392 0.04321352533869155 -0.010261103418043337 0.04321352533869155 0.17896754095489548 -0.011126220273454637 -0.010261103418043337 -0.011126220273454637 0.07579795412278681" calculation_info="_JSON {\"calculation_id\": 21217, \"calculator\": \"vasp\", \"calculation_source_path\": \"\", \"error\": null, \"status\": \"completed\", \"gpu_count\": null, \"parameters\": {}, \"date_started\": null, \"gpu_memory_mb\": null, \"model_version\": null, \"date_completed\": null, \"runtime_seconds\": null}" parent_id=21218 step=0 variance=0.45158612728118896 loss=0.45158612728118896 pbc="T T T"
W        0.00000000       0.00000000       0.00000000       0.02128596       0.00733710      -0.03860665
W        0.02565000       1.77039000       2.30592000      -0.02128595      -0.00733709       0.03860667
2
Lattice="2.975581428 -0.116603642 -0.068045716 -1.659624593 2.651481722 -0.071909727 0.280415623 0.083199894 4.753079805" Properties=species:S:1:pos:R:3:forces:R:3 generation=8 composition=W2 config_type=hcp_aa source_path=V-Cr-Ti-W-Zr/Fixed_Engrads/vcrtiwzr_fin_engrads/job_gen_6-2024-12-23/W/W2_hcp_idx_2703 date_processed=2025-02-12T16:53:32.468885 structure_index=2703 structure_id=21218 energy=-24.812696838378905 stress="0.18749021556063392 0.04321352533869155 -0.010261103418043337 0.04321352533869155 0.17896754095489548 -0.011126220273454637 -0.010261103418043337 -0.011126220273454637 0.07579795412278681" calculation_info="_JSON {\"calculation_id\": 21217, \"calculator\": \"vasp\", \"calculation_source_path\": \"\", \"error\": null, \"status\": \"completed\", \"gpu_count\": null, \"parameters\": {}, \"date_started\": null, \"gpu_memory_mb\": null, \"model_version\": null, \"date_completed\": null, \"runtime_seconds\": null}" parent_id=21218 step=1 variance=0.08244718611240387 loss=0.08244718611240387 pbc="T T T"
W       -0.01000000      -0.01000000      -0.01000000       0.02012451       0.01059715       0.14478166
W        0.03565000       1.78039000       2.31592000      -0.02012449      -0.01059716      -0.14478166
2
Lattice="2.975581428 -0.116603642 -0.068045716 -1.659624593 2.651481722 -0.071909727 0.280415623 0.083199894 4.753079805" Properties=species:S:1:pos:R:3:forces:R:3 generation=8 composition=W2 config_type=hcp_aa source_path=V-Cr-Ti-W-Zr/Fixed_Engrads/vcrtiwzr_fin_engrads/job_gen_6-2024-12-23/W/W2_hcp_idx_2703 date_processed=2025-02-12T16:53:32.468885 structure_index=2703 structure_id=21218 energy=-24.80994110107422 stress="0.18749021556063392 0.04321352533869155 -0.010261103418043337 0.04321352533869155 0.17896754095489548 -0.011126220273454637 -0.010261103418043337 -0.011126220273454637 0.07579795412278681" calculation_info="_JSON {\"calculation_id\": 21217, \"calculator\": \"vasp\", \"calculation_source_path\": \"\", \"error\": null, \"status\": \"completed\", \"gpu_count\": null, \"parameters\": {}, \"date_started\": null, \"gpu_memory_mb\": null, \"model_version\": null, \"date_completed\": null, \"runtime_seconds\": null}" parent_id=21218 step=2 variance=0.03227599710226059 loss=0.03227599710226059 pbc="T T T"
W       -0.01684707      -0.01638744      -0.01578860       0.02424159       0.01196609       0.25294432
W        0.04252768       1.78674869       2.32175434      -0.02424158      -0.01196609      -0.25294429
2
Lattice="2.975581428 -0.116603642 -0.068045716 -1.659624593 2.651481722 -0.071909727 0.280415623 0.083199894 4.753079805" Properties=species:S:1:pos:R:3:forces:R:3 generation=8 composition=W2 config_type=hcp_aa source_path=V-Cr-Ti-W-Zr/Fixed_Engrads/vcrtiwzr_fin_engrads/job_gen_6-2024-12-23/W/W2_hcp_idx_2703 date_processed=2025-02-12T16:53:32.468885 structure_index=2703 structure_id=21218 energy=-24.80699768066406 stress="0.18749021556063392 0.04321352533869155 -0.010261103418043337 0.04321352533869155 0.17896754095489548 -0.011126220273454637 -0.010261103418043337 -0.011126220273454637 0.07579795412278681" calculation_info="_JSON {\"calculation_id\": 21217, \"calculator\": \"vasp\", \"calculation_source_path\": \"\", \"error\": null, \"status\": \"completed\", \"gpu_count\": null, \"parameters\": {}, \"date_started\": null, \"gpu_memory_mb\": null, \"model_version\": null, \"date_completed\": null, \"runtime_seconds\": null}" parent_id=21218 step=3 variance=0.020090550184249878 loss=0.020090550184249878 pbc="T T T"
W       -0.02221459      -0.02127533      -0.02008054       0.03016254       0.01316526       0.33345512
W        0.04792516       1.79160765       2.32608703      -0.03016253      -0.01316531      -0.33345512
2
Lattice="2.975581428 -0.116603642 -0.068045716 -1.659624593 2.651481722 -0.071909727 0.280415623 0.083199894 4.753079805" Properties=species:S:1:pos:R:3:forces:R:3 generation=8 composition=W2 config_type=hcp_aa source_path=V-Cr-Ti-W-Zr/Fixed_Engrads/vcrtiwzr_fin_engrads/job_gen_6-2024-12-23/W/W2_hcp_idx_2703 date_processed=2025-02-12T16:53:32.468885 structure_index=2703 structure_id=21218 energy=-24.80406837463379 stress="0.18749021556063392 0.04321352533869155 -0.010261103418043337 0.04321352533869155 0.17896754095489548 -0.011126220273454637 -0.010261103418043337 -0.011126220273454637 0.07579795412278681" calculation_info="_JSON {\"calculation_id\": 21217, \"calculator\": \"vasp\", \"calculation_source_path\": \"\", \"error\": null, \"status\": \"completed\", \"gpu_count\": null, \"parameters\": {}, \"date_started\": null, \"gpu_memory_mb\": null, \"model_version\": null, \"date_completed\": null, \"runtime_seconds\": null}" parent_id=21218 step=4 variance=0.0148224588483572 loss=0.0148224588483572 pbc="T T T"
W       -0.02665242      -0.02524927      -0.02351597       0.03681379       0.01435049       0.39794403
W        0.05238526       1.79556485       2.32955933      -0.03681378      -0.01435052      -0.39794400
2
Lattice="2.975581428 -0.116603642 -0.068045716 -1.659624593 2.651481722 -0.071909727 0.280415623 0.083199894 4.753079805" Properties=species:S:1:pos:R:3:forces:R:3 generation=8 composition=W2 config_type=hcp_aa source_path=V-Cr-Ti-W-Zr/Fixed_Engrads/vcrtiwzr_fin_engrads/job_gen_6-2024-12-23/W/W2_hcp_idx_2703 date_processed=2025-02-12T16:53:32.468885 structure_index=2703 structure_id=21218 energy=-24.801222229003905 stress="0.18749021556063392 0.04321352533869155 -0.010261103418043337 0.04321352533869155 0.17896754095489548 -0.011126220273454637 -0.010261103418043337 -0.011126220273454637 0.07579795412278681" calculation_info="_JSON {\"calculation_id\": 21217, \"calculator\": \"vasp\", \"calculation_source_path\": \"\", \"error\": null, \"status\": \"completed\", \"gpu_count\": null, \"parameters\": {}, \"date_started\": null, \"gpu_memory_mb\": null, \"model_version\": null, \"date_completed\": null, \"runtime_seconds\": null}" parent_id=21218 step=5 variance=0.011921821162104607 loss=0.011921821162104607 pbc="T T T"
W       -0.03043109      -0.02858835      -0.02637293       0.04370053       0.01553117       0.45153981
W        0.05617704       1.79888741       2.33244862      -0.04370052      -0.01553119      -0.45153981
2
Lattice="2.975581428 -0.116603642 -0.068045716 -1.659624593 2.651481722 -0.071909727 0.280415623 0.083199894 4.753079805" Properties=species:S:1:pos:R:3:forces:R:3 generation=8 composition=W2 config_type=hcp_aa source_path=V-Cr-Ti-W-Zr/Fixed_Engrads/vcrtiwzr_fin_engrads/job_gen_6-2024-12-23/W/W2_hcp_idx_2703 date_processed=2025-02-12T16:53:32.468885 structure_index=2703 structure_id=21218 energy=-24.798502731323243 stress="0.18749021556063392 0.04321352533869155 -0.010261103418043337 0.04321352533869155 0.17896754095489548 -0.011126220273454637 -0.010261103418043337 -0.011126220273454637 0.07579795412278681" calculation_info="_JSON {\"calculation_id\": 21217, \"calculator\": \"vasp\", \"calculation_source_path\": \"\", \"error\": null, \"status\": \"completed\", \"gpu_count\": null, \"parameters\": {}, \"date_started\": null, \"gpu_memory_mb\": null, \"model_version\": null, \"date_completed\": null, \"runtime_seconds\": null}" parent_id=21218 step=6 variance=0.01009777095168829 loss=0.01009777095168829 pbc="T T T"
W       -0.03370650      -0.03145365      -0.02880372       0.05057827       0.01670360       0.49707699
W        0.05946063       1.80173576       2.33490787      -0.05057829      -0.01670356      -0.49707699
2
Lattice="2.975581428 -0.116603642 -0.068045716 -1.659624593 2.651481722 -0.071909727 0.280415623 0.083199894 4.753079805" Properties=species:S:1:pos:R:3:forces:R:3 generation=8 composition=W2 config_type=hcp_aa source_path=V-Cr-Ti-W-Zr/Fixed_Engrads/vcrtiwzr_fin_engrads/job_gen_6-2024-12-23/W/W2_hcp_idx_2703 date_processed=2025-02-12T16:53:32.468885 structure_index=2703 structure_id=21218 energy=-24.795925903320313 stress="0.18749021556063392 0.04321352533869155 -0.010261103418043337 0.04321352533869155 0.17896754095489548 -0.011126220273454637 -0.010261103418043337 -0.011126220273454637 0.07579795412278681" calculation_info="_JSON {\"calculation_id\": 21217, \"calculator\": \"vasp\", \"calculation_source_path\": \"\", \"error\": null, \"status\": \"completed\", \"gpu_count\": null, \"parameters\": {}, \"date_started\": null, \"gpu_memory_mb\": null, \"model_version\": null, \"date_completed\": null, \"runtime_seconds\": null}" parent_id=21218 step=7 variance=0.00885071512311697 loss=0.00885071512311697 pbc="T T T"
W       -0.03658080      -0.03394721      -0.03090274       0.05729444       0.01785055       0.53634965
W        0.06234066       1.80421173       2.33703231      -0.05729442      -0.01785052      -0.53634959
2
Lattice="2.975581428 -0.116603642 -0.068045716 -1.659624593 2.651481722 -0.071909727 0.280415623 0.083199894 4.753079805" Properties=species:S:1:pos:R:3:forces:R:3 generation=8 composition=W2 config_type=hcp_aa source_path=V-Cr-Ti-W-Zr/Fixed_Engrads/vcrtiwzr_fin_engrads/job_gen_6-2024-12-23/W/W2_hcp_idx_2703 date_processed=2025-02-12T16:53:32.468885 structure_index=2703 structure_id=21218 energy=-24.793497467041014 stress="0.18749021556063392 0.04321352533869155 -0.010261103418043337 0.04321352533869155 0.17896754095489548 -0.011126220273454637 -0.010261103418043337 -0.011126220273454637 0.07579795412278681" calculation_info="_JSON {\"calculation_id\": 21217, \"calculator\": \"vasp\", \"calculation_source_path\": \"\", \"error\": null, \"status\": \"completed\", \"gpu_count\": null, \"parameters\": {}, \"date_started\": null, \"gpu_memory_mb\": null, \"model_version\": null, \"date_completed\": null, \"runtime_seconds\": null}" parent_id=21218 step=8 variance=0.007948009297251701 loss=0.007948009297251701 pbc="T T T"
W       -0.03912552      -0.03613979      -0.03273448       0.06375869       0.01896951       0.57056904
W        0.06488739       1.80638828       2.33888715      -0.06375866      -0.01896951      -0.57056916
2
Lattice="2.975581428 -0.116603642 -0.068045716 -1.659624593 2.651481722 -0.071909727 0.280415623 0.083199894 4.753079805" Properties=species:S:1:pos:R:3:forces:R:3 generation=8 composition=W2 config_type=hcp_aa source_path=V-Cr-Ti-W-Zr/Fixed_Engrads/vcrtiwzr_fin_engrads/job_gen_6-2024-12-23/W/W2_hcp_idx_2703 date_processed=2025-02-12T16:53:32.468885 structure_index=2703 structure_id=21218 energy=-24.791218566894532 stress="0.18749021556063392 0.04321352533869155 -0.010261103418043337 0.04321352533869155 0.17896754095489548 -0.011126220273454637 -0.010261103418043337 -0.011126220273454637 0.07579795412278681" calculation_info="_JSON {\"calculation_id\": 21217, \"calculator\": \"vasp\", \"calculation_source_path\": \"\", \"error\": null, \"status\": \"completed\", \"gpu_count\": null, \"parameters\": {}, \"date_started\": null, \"gpu_memory_mb\": null, \"model_version\": null, \"date_completed\": null, \"runtime_seconds\": null}" parent_id=21218 step=9 variance=0.007267169654369354 loss=0.007267169654369354 pbc="T T T"
W       -0.04139204      -0.03807803      -0.03434492       0.06992601       0.02004928       0.60062468
W        0.06715502       1.80831412       2.34051910      -0.06992600      -0.02004932      -0.60062462
2
Lattice="2.975581428 -0.116603642 -0.068045716 -1.659624593 2.651481722 -0.071909727 0.280415623 0.083199894 4.753079805" Properties=species:S:1:pos:R:3:forces:R:3 generation=8 composition=W2 config_type=hcp_aa source_path=V-Cr-Ti-W-Zr/Fixed_Engrads/vcrtiwzr_fin_engrads/job_gen_6-2024-12-23/W/W2_hcp_idx_2703 date_processed=2025-02-12T16:53:32.468885 structure_index=2703 structure_id=21218 energy=-24.78909339904785 stress="0.18749021556063392 0.04321352533869155 -0.010261103418043337 0.04321352533869155 0.17896754095489548 -0.011126220273454637 -0.010261103418043337 -0.011126220273454637 0.07579795412278681" calculation_info="_JSON {\"calculation_id\": 21217, \"calculator\": \"vasp\", \"calculation_source_path\": \"\", \"error\": null, \"status\": \"completed\", \"gpu_count\": null, \"parameters\": {}, \"date_started\": null, \"gpu_memory_mb\": null, \"model_version\": null, \"date_completed\": null, \"runtime_seconds\": null}" parent_id=21218 step=10 variance=0.006737463641911745 loss=0.006737463641911745 pbc="T T T"
W       -0.04342021      -0.03979960      -0.03576888       0.07577004       0.02108128       0.62716436
W        0.06918444       1.81002574       2.34196268      -0.07577001      -0.02108127      -0.62716436
2
Lattice="2.975581428 -0.116603642 -0.068045716 -1.659624593 2.651481722 -0.071909727 0.280415623 0.083199894 4.753079805" Properties=species:S:1:pos:R:3:forces:R:3 generation=8 composition=W2 config_type=hcp_aa source_path=V-Cr-Ti-W-Zr/Fixed_Engrads/vcrtiwzr_fin_engrads/job_gen_6-2024-12-23/W/W2_hcp_idx_2703 date_processed=2025-02-12T16:53:32.468885 structure_index=2703 structure_id=21218 energy=-24.78711395263672 stress="0.18749021556063392 0.04321352533869155 -0.010261103418043337 0.04321352533869155 0.17896754095489548 -0.011126220273454637 -0.010261103418043337 -0.011126220273454637 0.07579795412278681" calculation_info="_JSON {\"calculation_id\": 21217, \"calculator\": \"vasp\", \"calculation_source_path\": \"\", \"error\": null, \"status\": \"completed\", \"gpu_count\": null, \"parameters\": {}, \"date_started\": null, \"gpu_memory_mb\": null, \"model_version\": null, \"date_completed\": null, \"runtime_seconds\": null}" parent_id=21218 step=11 variance=0.006315055303275585 loss=0.006315055303275585 pbc="T T T"
W       -0.04524349      -0.04134012      -0.03703336       0.08128569       0.02206299       0.65071762
W        0.07100671       1.81155050       2.34324509      -0.08128569      -0.02206299      -0.65071762
2
Lattice="2.975581428 -0.116603642 -0.068045716 -1.659624593 2.651481722 -0.071909727 0.280415623 0.083199894 4.753079805" Properties=species:S:1:pos:R:3:forces:R:3 generation=8 composition=W2 config_type=hcp_aa source_path=V-Cr-Ti-W-Zr/Fixed_Engrads/vcrtiwzr_fin_engrads/job_gen_6-2024-12-23/W/W2_hcp_idx_2703 date_processed=2025-02-12T16:53:32.468885 structure_index=2703 structure_id=21218 energy=-24.785276031494142 stress="0.18749021556063392 0.04321352533869155 -0.010261103418043337 0.04321352533869155 0.17896754095489548 -0.011126220273454637 -0.010261103418043337 -0.011126220273454637 0.07579795412278681" calculation_info="_JSON {\"calculation_id\": 21217, \"calculator\": \"vasp\", \"calculation_source_path\": \"\", \"error\": null, \"status\": \"completed\", \"gpu_count\": null, \"parameters\": {}, \"date_started\": null, \"gpu_memory_mb\": null, \"model_version\": null, \"date_completed\": null, \"runtime_seconds\": null}" parent_id=21218 step=12 variance=0.00597189087420702 loss=0.00597189087420702 pbc="T T T"
W       -0.04688660      -0.04271621      -0.03815987       0.08645746       0.02299058       0.67167795
W        0.07264889       1.81291416       2.34438791      -0.08645748      -0.02299060      -0.67167807
2
Lattice="2.975581428 -0.116603642 -0.068045716 -1.659624593 2.651481722 -0.071909727 0.280415623 0.083199894 4.753079805" Properties=species:S:1:pos:R:3:forces:R:3 generation=8 composition=W2 config_type=hcp_aa source_path=V-Cr-Ti-W-Zr/Fixed_Engrads/vcrtiwzr_fin_engrads/job_gen_6-2024-12-23/W/W2_hcp_idx_2703 date_processed=2025-02-12T16:53:32.468885 structure_index=2703 structure_id=21218 energy=-24.783574295043945 stress="0.18749021556063392 0.04321352533869155 -0.010261103418043337 0.04321352533869155 0.17896754095489548 -0.011126220273454637 -0.010261103418043337 -0.011126220273454637 0.07579795412278681" calculation_info="_JSON {\"calculation_id\": 21217, \"calculator\": \"vasp\", \"calculation_source_path\": \"\", \"error\": null, \"status\": \"completed\", \"gpu_count\": null, \"parameters\": {}, \"date_started\": null, \"gpu_memory_mb\": null, \"model_version\": null, \"date_completed\": null, \"runtime_seconds\": null}" parent_id=21218 step=13 variance=0.005688999779522419 loss=0.005688999779522419 pbc="T T T"
W       -0.04836957      -0.04394946      -0.03916581       0.09129514       0.02386561       0.69038683
W        0.07413243       1.81413934       2.34540900      -0.09129515      -0.02386563      -0.69038677
2
Lattice="2.975581428 -0.116603642 -0.068045716 -1.659624593 2.651481722 -0.071909727 0.280415623 0.083199894 4.753079805" Properties=species:S:1:pos:R:3:forces:R:3 generation=8 composition=W2 config_type=hcp_aa source_path=V-Cr-Ti-W-Zr/Fixed_Engrads/vcrtiwzr_fin_engrads/job_gen_6-2024-12-23/W/W2_hcp_idx_2703 date_processed=2025-02-12T16:53:32.468885 structure_index=2703 structure_id=21218 energy=-24.782002258300782 stress="0.18749021556063392 0.04321352533869155 -0.010261103418043337 0.04321352533869155 0.17896754095489548 -0.011126220273454637 -0.010261103418043337 -0.011126220273454637 0.07579795412278681" calculation_info="_JSON {\"calculation_id\": 21217, \"calculator\": \"vasp\", \"calculation_source_path\": \"\", \"error\": null, \"status\": \"completed\", \"gpu_count\": null, \"parameters\": {}, \"date_started\": null, \"gpu_memory_mb\": null, \"model_version\": null, \"date_completed\": null, \"runtime_seconds\": null}" parent_id=21218 step=14 variance=0.005452752113342285 loss=0.005452752113342285 pbc="T T T"
W       -0.04971162      -0.04505828      -0.04006584       0.09580822       0.02468791       0.70711792
W        0.07547597       1.81524247       2.34632313      -0.09580822      -0.02468796      -0.70711792
2
Lattice="2.975581428 -0.116603642 -0.068045716 -1.659624593 2.651481722 -0.071909727 0.280415623 0.083199894 4.753079805" Properties=species:S:1:pos:R:3:forces:R:3 generation=8 composition=W2 config_type=hcp_aa source_path=V-Cr-Ti-W-Zr/Fixed_Engrads/vcrtiwzr_fin_engrads/job_gen_6-2024-12-23/W/W2_hcp_idx_2703 date_processed=2025-02-12T16:53:32.468885 structure_index=2703 structure_id=21218 energy=-24.78055191040039 stress="0.18749021556063392 0.04321352533869155 -0.010261103418043337 0.04321352533869155 0.17896754095489548 -0.011126220273454637 -0.010261103418043337 -0.011126220273454637 0.07579795412278681" calculation_info="_JSON {\"calculation_id\": 21217, \"calculator\": \"vasp\", \"calculation_source_path\": \"\", \"error\": null, \"status\": \"completed\", \"gpu_count\": null, \"parameters\": {}, \"date_started\": null, \"gpu_memory_mb\": null, \"model_version\": null, \"date_completed\": null, \"runtime_seconds\": null}" parent_id=21218 step=15 variance=0.005253143142908812 loss=0.005253143142908812 pbc="T T T"
W       -0.05092834      -0.04605523      -0.04087216       0.10000549       0.02545364       0.72211683
W        0.07669194       1.81623557       2.34714237      -0.10000549      -0.02545364      -0.72211683
2
Lattice="2.975581428 -0.116603642 -0.068045716 -1.659624593 2.651481722 -0.071909727 0.280415623 0.083199894 4.753079805" Properties=species:S:1:pos:R:3:forces:R:3 generation=8 composition=W2 config_type=hcp_aa source_path=V-Cr-Ti-W-Zr/Fixed_Engrads/vcrtiwzr_fin_engrads/job_gen_6-2024-12-23/W/W2_hcp_idx_2703 date_processed=2025-02-12T16:53:32.468885 structure_index=2703 structure_id=21218 energy=-24.7792179107666 stress="0.18749021556063392 0.04321352533869155 -0.010261103418043337 0.04321352533869155 0.17896754095489548 -0.011126220273454637 -0.010261103418043337 -0.011126220273454637 0.07579795412278681" calculation_info="_JSON {\"calculation_id\": 21217, \"calculator\": \"vasp\", \"calculation_source_path\": \"\", \"error\": null, \"status\": \"completed\", \"gpu_count\": null, \"parameters\": {}, \"date_started\": null, \"gpu_memory_mb\": null, \"model_version\": null, \"date_completed\": null, \"runtime_seconds\": null}" parent_id=21218 step=16 variance=0.0050834110006690025 loss=0.0050834110006690025 pbc="T T T"
W       -0.05203138      -0.04695373      -0.04159513       0.10390017       0.02617035       0.73554903
W        0.07779515       1.81713035       2.34787736      -0.10390015      -0.02617033      -0.73554909
2
Lattice="2.975581428 -0.116603642 -0.068045716 -1.659624593 2.651481722 -0.071909727 0.280415623 0.083199894 4.753079805" Properties=species:S:1:pos:R:3:forces:R:3 generation=8 composition=W2 config_type=hcp_aa source_path=V-Cr-Ti-W-Zr/Fixed_Engrads/vcrtiwzr_fin_engrads/job_gen_6-2024-12-23/W/W2_hcp_idx_2703 date_processed=2025-02-12T16:53:32.468885 structure_index=2703 structure_id=21218 energy=-24.777994537353514 stress="0.18749021556063392 0.04321352533869155 -0.010261103418043337 0.04321352533869155 0.17896754095489548 -0.011126220273454637 -0.010261103418043337 -0.011126220273454637 0.07579795412278681" calculation_info="_JSON {\"calculation_id\": 21217, \"calculator\": \"vasp\", \"calculation_source_path\": \"\", \"error\": null, \"status\": \"completed\", \"gpu_count\": null, \"parameters\": {}, \"date_started\": null, \"gpu_memory_mb\": null, \"model_version\": null, \"date_completed\": null, \"runtime_seconds\": null}" parent_id=21218 step=17 variance=0.004937639459967613 loss=0.004937639459967613 pbc="T T T"
W       -0.05303195      -0.04776288      -0.04224376       0.10750687       0.02683533       0.74761569
W        0.07879619       1.81793672       2.34853717      -0.10750687      -0.02683530      -0.74761569
2
Lattice="2.975581428 -0.116603642 -0.068045716 -1.659624593 2.651481722 -0.071909727 0.280415623 0.083199894 4.753079805" Properties=species:S:1:pos:R:3:forces:R:3 generation=8 composition=W2 config_type=hcp_aa source_path=V-Cr-Ti-W-Zr/Fixed_Engrads/vcrtiwzr_fin_engrads/job_gen_6-2024-12-23/W/W2_hcp_idx_2703 date_processed=2025-02-12T16:53:32.468885 structure_index=2703 structure_id=21218 energy=-24.77687225341797 stress="0.18749021556063392 0.04321352533869155 -0.010261103418043337 0.04321352533869155 0.17896754095489548 -0.011126220273454637 -0.010261103418043337 -0.011126220273454637 0.07579795412278681" calculation_info="_JSON {\"calculation_id\": 21217, \"calculator\": \"vasp\", \"calculation_source_path\": \"\", \"error\": null, \"status\": \"completed\", \"gpu_count\": null, \"parameters\": {}, \"date_started\": null, \"gpu_memory_mb\": null, \"model_version\": null, \"date_completed\": null, \"runtime_seconds\": null}" parent_id=21218 step=18 variance=0.004812246188521385 loss=0.004812246188521385 pbc="T T T"
W       -0.05394083      -0.04849225      -0.04282563       0.11083286       0.02745110       0.75844508
W        0.07970549       1.81866587       2.34912955      -0.11083287      -0.02745111      -0.75844508
2
Lattice="2.975581428 -0.116603642 -0.068045716 -1.659624593 2.651481722 -0.071909727 0.280415623 0.083199894 4.753079805" Properties=species:S:1:pos:R:3:forces:R:3 generation=8 composition=W2 config_type=hcp_aa source_path=V-Cr-Ti-W-Zr/Fixed_Engrads/vcrtiwzr_fin_engrads/job_gen_6-2024-12-23/W/W2_hcp_idx_2703 date_processed=2025-02-12T16:53:32.468885 structure_index=2703 structure_id=21218 energy=-24.775846099853517 stress="0.18749021556063392 0.04321352533869155 -0.010261103418043337 0.04321352533869155 0.17896754095489548 -0.011126220273454637 -0.010261103418043337 -0.011126220273454637 0.07579795412278681" calculation_info="_JSON {\"calculation_id\": 21217, \"calculator\": \"vasp\", \"calculation_source_path\": \"\", \"error\": null, \"status\": \"completed\", \"gpu_count\": null, \"parameters\": {}, \"date_started\": null, \"gpu_memory_mb\": null, \"model_version\": null, \"date_completed\": null, \"runtime_seconds\": null}" parent_id=21218 step=19 variance=0.004703485406935215 loss=0.004703485406935215 pbc="T T T"
W       -0.05476796      -0.04915044      -0.04334774       0.11391082       0.02802383       0.76817131
W        0.08053325       1.81932595       2.34966141      -0.11391081      -0.02802381      -0.76817131
2
Lattice="2.975581428 -0.116603642 -0.068045716 -1.659624593 2.651481722 -0.071909727 0.280415623 0.083199894 4.753079805" Properties=species:S:1:pos:R:3:forces:R:3 generation=8 composition=W2 config_type=hcp_aa source_path=V-Cr-Ti-W-Zr/Fixed_Engrads/vcrtiwzr_fin_engrads/job_gen_6-2024-12-23/W/W2_hcp_idx_2703 date_processed=2025-02-12T16:53:32.468885 structure_index=2703 structure_id=21218 energy=-24.77490653991699 stress="0.18749021556063392 0.04321352533869155 -0.010261103418043337 0.04321352533869155 0.17896754095489548 -0.011126220273454637 -0.010261103418043337 -0.011126220273454637 0.07579795412278681" calculation_info="_JSON {\"calculation_id\": 21217, \"calculator\": \"vasp\", \"calculation_source_path\": \"\", \"error\": null, \"status\": \"completed\", \"gpu_count\": null, \"parameters\": {}, \"date_started\": null, \"gpu_memory_mb\": null, \"model_version\": null, \"date_completed\": null, \"runtime_seconds\": null}" parent_id=21218 step=20 variance=0.004608883522450924 loss=0.004608883522450924 pbc="T T T"
W       -0.05552180      -0.04974754      -0.04381605       0.11674334       0.02854513       0.77690852
W        0.08128554       1.81992005       2.35013859      -0.11674335      -0.02854512      -0.77690852
2
Lattice="2.975581428 -0.116603642 -0.068045716 -1.659624593 2.651481722 -0.071909727 0.280415623 0.083199894 4.753079805" Properties=species:S:1:pos:R:3:forces:R:3 generation=8 composition=W2 config_type=hcp_aa source_path=V-Cr-Ti-W-Zr/Fixed_Engrads/vcrtiwzr_fin_engrads/job_gen_6-2024-12-23/W/W2_hcp_idx_2703 date_processed=2025-02-12T16:53:32.468885 structure_index=2703 structure_id=21218 energy=-24.797369766235352 stress="0.18749021556063392 0.04321352533869155 -0.010261103418043337 0.04321352533869155 0.17896754095489548 -0.011126220273454637 -0.010261103418043337 -0.011126220273454637 0.07579795412278681" calculation_info="_JSON {\"calculation_id\": 21217, \"calculator\": \"vasp\", \"calculation_source_path\": \"\", \"error\": null, \"status\": \"completed\", \"gpu_count\": null, \"parameters\": {}, \"date_started\": null, \"gpu_memory_mb\": null, \"model_version\": null, \"date_completed\": null, \"runtime_seconds\": null}" parent_id=21218 step=21 variance=0.007864498533308506 loss=0.007864498533308506 pbc="T T T"
W       -0.01237949       0.08614617      -0.02161324       0.16468960      -0.08068893       0.40370932
W        0.04256103       1.75113219       2.34288512      -0.16468962       0.08068894      -0.40370932
2
Lattice="2.975581428 -0.116603642 -0.068045716 -1.659624593 2.651481722 -0.071909727 0.280415623 0.083199894 4.753079805" Properties=species:S:1:pos:R:3:forces:R:3 generation=8 composition=W2 config_type=hcp_aa source_path=V-Cr-Ti-W-Zr/Fixed_Engrads/vcrtiwzr_fin_engrads/job_gen_6-2024-12-23/W/W2_hcp_idx_2703 date_processed=2025-02-12T16:53:32.468885 structure_index=2703 structure_id=21218 energy=-24.802882385253906 stress="0.18749021556063392 0.04321352533869155 -0.010261103418043337 0.04321352533869155 0.17896754095489548 -0.011126220273454637 -0.010261103418043337 -0.011126220273454637 0.07579795412278681" calculation_info="_JSON {\"calculation_id\": 21217, \"calculator\": \"vasp\", \"calculation_source_path\": \"\", \"error\": null, \"status\": \"completed\", \"gpu_count\": null, \"parameters\": {}, \"date_started\": null, \"gpu_memory_mb\": null, \"model_version\": null, \"date_completed\": null, \"runtime_seconds\": null}" parent_id=21218 step=22 variance=0.018523190170526505 loss=0.018523190170526505 pbc="T T T"
W       -0.02237949       0.07614617      -0.01161324       0.13018675      -0.09078675       0.26727363
W        0.05256103       1.76113218       2.33288512      -0.13018672       0.09078674      -0.26727360
2