2
Lattice="2.583731961 -0.107220156 -0.074913674 -1.190051477 2.291807329 0.21921483 0.006469656 0.15829225 4.306537813" Properties=species:S:1:pos:R:3:forces:R:3 batch_id=T generation=6 composition=V2 config_type=hcp source_path=V-Cr-Ti-W-Zr/Fixed_Engrads/vcrtiwzr_fin_engrads/job_gen_6-2024-12-23/V/V2_hcp_idx_2690 temperature=T date_processed=2025-01-03T17:40:04.229901 structure_type=T structure_index=2690 adversarial_step=T structure_id=7984 energy=-17.266691 stress="-0.11795652710600332 0.0012868431440289808 0.012507041820392042 0.0012868431440289808 -0.13188502269774227 -0.05797733457976571 0.012507041820392042 -0.05797733457976571 -0.17964538132898464" calculation_info="_JSON {\"calculation_id\": 7984, \"calculator\": \"vasp\", \"calculation_source_path\": \"\", \"error\": null, \"status\": \"completed\", \"gpu_count\": null, \"parameters\": {}, \"date_started\": null, \"gpu_memory_mb\": null, \"model_version\": null, \"date_completed\": null, \"runtime_seconds\": null}" pbc="T T T"
V        0.00000000       0.00000000       0.00000000       0.02091400       0.06760400       0.04101200
V        0.07111000       1.57128000       2.27444000      -0.02091400      -0.06760400      -0.04101200
2
Lattice="2.583731961 -0.107220156 -0.074913674 -1.190051477 2.291807329 0.21921483 0.006469656 0.15829225 4.306537813" Properties=species:S:1:pos:R:3:forces:R:3 batch_id=T generation=8 composition=V2 config_type=hcp_aa source_path=V-Cr-Ti-W-Zr/Fixed_Engrads/vcrtiwzr_fin_engrads/job_gen_6-2024-12-23/V/V2_hcp_idx_2690 temperature=T date_processed=2025-01-03T17:40:04.229901 structure_type=T structure_index=2690 adversarial_step=T structure_id=7984 energy=-17.283157730102538 stress="-0.11795652710600332 0.0012868431440289808 0.012507041820392042 0.0012868431440289808 -0.13188502269774227 -0.05797733457976571 0.012507041820392042 -0.05797733457976571 -0.17964538132898464" calculation_info="_JSON {\"calculation_id\": 7984, \"calculator\": \"vasp\", \"calculation_source_path\": \"\", \"error\": null, \"status\": \"completed\", \"gpu_count\": null, \"parameters\": {}, \"date_started\": null, \"gpu_memory_mb\": null, \"model_version\": null, \"date_completed\": null, \"runtime_seconds\": null}" parent_id=7984 step=0 variance=0.23185037076473236 loss=0.23185037076473236 pbc="T T T"
V        0.00000000       0.00000000       0.00000000      -0.02635970      -0.01547466       0.00174955
V        0.07111000       1.57128000       2.27444000       0.02635971       0.01547466      -0.00174954
2
Lattice="2.583731961 -0.107220156 -0.074913674 -1.190051477 2.291807329 0.21921483 0.006469656 0.15829225 4.306537813" Properties=species:S:1:pos:R:3:forces:R:3 batch_id=T generation=8 composition=V2 config_type=hcp_aa source_path=V-Cr-Ti-W-Zr/Fixed_Engrads/vcrtiwzr_fin_engrads/job_gen_6-2024-12-23/V/V2_hcp_idx_2690 temperature=T date_processed=2025-01-03T17:40:04.229901 structure_type=T structure_index=2690 adversarial_step=T structure_id=7984 energy=-17.281175994873045 stress="-0.11795652710600332 0.0012868431440289808 0.012507041820392042 0.0012868431440289808 -0.13188502269774227 -0.05797733457976571 0.012507041820392042 -0.05797733457976571 -0.17964538132898464" calculation_info="_JSON {\"calculation_id\": 7984, \"calculator\": \"vasp\", \"calculation_source_path\": \"\", \"error\": null, \"status\": \"completed\", \"gpu_count\": null, \"parameters\": {}, \"date_started\": null, \"gpu_memory_mb\": null, \"model_version\": null, \"date_completed\": null, \"runtime_seconds\": null}" parent_id=7984 step=1 variance=0.009941969998180866 loss=0.009941969998180866 pbc="T T T"
V        0.01000000       0.01000000      -0.01000000       0.02658109       0.02160264       0.20247748
V        0.06111000       1.56128000       2.28444000      -0.02658109      -0.02160262      -0.20247750
2
Lattice="2.583731961 -0.107220156 -0.074913674 -1.190051477 2.291807329 0.21921483 0.006469656 0.15829225 4.306537813" Properties=species:S:1:pos:R:3:forces:R:3 batch_id=T generation=8 composition=V2 config_type=hcp_aa source_path=V-Cr-Ti-W-Zr/Fixed_Engrads/vcrtiwzr_fin_engrads/job_gen_6-2024-12-23/V/V2_hcp_idx_2690 temperature=T date_processed=2025-01-03T17:40:04.229901 structure_type=T structure_index=2690 adversarial_step=T structure_id=7984 energy=-17.278735733032228 stress="-0.11795652710600332 0.0012868431440289808 0.012507041820392042 0.0012868431440289808 -0.13188502269774227 -0.05797733457976571 0.012507041820392042 -0.05797733457976571 -0.17964538132898464" calculation_info="_JSON {\"calculation_id\": 7984, \"calculator\": \"vasp\", \"calculation_source_path\": \"\", \"error\": null, \"status\": \"completed\", \"gpu_count\": null, \"parameters\": {}, \"date_started\": null, \"gpu_memory_mb\": null, \"model_version\": null, \"date_completed\": null, \"runtime_seconds\": null}" parent_id=7984 step=2 variance=0.0053632063791155815 loss=0.0053632063791155815 pbc="T T T"
V        0.01669014       0.01673348      -0.01653974       0.06508537       0.04453739       0.33382356
V        0.05442129       1.55454788       2.29094441      -0.06508534      -0.04453739      -0.33382365
2
Lattice="2.583731961 -0.107220156 -0.074913674 -1.190051477 2.291807329 0.21921483 0.006469656 0.15829225 4.306537813" Properties=species:S:1:pos:R:3:forces:R:3 batch_id=T generation=8 composition=V2 config_type=hcp_aa source_path=V-Cr-Ti-W-Zr/Fixed_Engrads/vcrtiwzr_fin_engrads/job_gen_6-2024-12-23/V/V2_hcp_idx_2690 temperature=T date_processed=2025-01-03T17:40:04.229901 structure_type=T structure_index=2690 adversarial_step=T structure_id=7984 energy=-17.276279067993165 stress="-0.11795652710600332 0.0012868431440289808 0.012507041820392042 0.0012868431440289808 -0.13188502269774227 -0.05797733457976571 0.012507041820392042 -0.05797733457976571 -0.17964538132898464" calculation_info="_JSON {\"calculation_id\": 7984, \"calculator\": \"vasp\", \"calculation_source_path\": \"\", \"error\": null, \"status\": \"completed\", \"gpu_count\": null, \"parameters\": {}, \"date_started\": null, \"gpu_memory_mb\": null, \"model_version\": null, \"date_completed\": null, \"runtime_seconds\": null}" parent_id=7984 step=3 variance=0.0042670900002121925 loss=0.0042670900002121925 pbc="T T T"
V        0.02185912       0.02195341      -0.02155748       0.09647971       0.06096322       0.43471384
V        0.04925316       1.54932845       2.29592579      -0.09647970      -0.06096324      -0.43471384
2
Lattice="2.583731961 -0.107220156 -0.074913674 -1.190051477 2.291807329 0.21921483 0.006469656 0.15829225 4.306537813" Properties=species:S:1:pos:R:3:forces:R:3 batch_id=T generation=8 composition=V2 config_type=hcp_aa source_path=V-Cr-Ti-W-Zr/Fixed_Engrads/vcrtiwzr_fin_engrads/job_gen_6-2024-12-23/V/V2_hcp_idx_2690 temperature=T date_processed=2025-01-03T17:40:04.229901 structure_type=T structure_index=2690 adversarial_step=T structure_id=7984 energy=-17.27390823364258 stress="-0.11795652710600332 0.0012868431440289808 0.012507041820392042 0.0012868431440289808 -0.13188502269774227 -0.05797733457976571 0.012507041820392042 -0.05797733457976571 -0.17964538132898464" calculation_info="_JSON {\"calculation_id\": 7984, \"calculator\": \"vasp\", \"calculation_source_path\": \"\", \"error\": null, \"status\": \"completed\", \"gpu_count\": null, \"parameters\": {}, \"date_started\": null, \"gpu_memory_mb\": null, \"model_version\": null, \"date_completed\": null, \"runtime_seconds\": null}" parent_id=7984 step=4 variance=0.003759253304451704 loss=0.003759253304451704 pbc="T T T"
V        0.02609251       0.02623911      -0.02564839       0.12322466       0.07342737       0.51704824
V        0.04502121       1.54504364       2.29998346      -0.12322468      -0.07342740      -0.51704824
2
Lattice="2.583731961 -0.107220156 -0.074913674 -1.190051477 2.291807329 0.21921483 0.006469656 0.15829225 4.306537813" Properties=species:S:1:pos:R:3:forces:R:3 batch_id=T generation=8 composition=V2 config_type=hcp_aa source_path=V-Cr-Ti-W-Zr/Fixed_Engrads/vcrtiwzr_fin_engrads/job_gen_6-2024-12-23/V/V2_hcp_idx_2690 temperature=T date_processed=2025-01-03T17:40:04.229901 structure_type=T structure_index=2690 adversarial_step=T structure_id=7984 energy=-17.271655654907228 stress="-0.11795652710600332 0.0012868431440289808 0.012507041820392042 0.0012868431440289808 -0.13188502269774227 -0.05797733457976571 0.012507041820392042 -0.05797733457976571 -0.17964538132898464" calculation_info="_JSON {\"calculation_id\": 7984, \"calculator\": \"vasp\", \"calculation_source_path\": \"\", \"error\": null, \"status\": \"completed\", \"gpu_count\": null, \"parameters\": {}, \"date_started\": null, \"gpu_memory_mb\": null, \"model_version\": null, \"date_completed\": null, \"runtime_seconds\": null}" parent_id=7984 step=5 variance=0.003442135639488697 loss=0.003442135639488697 pbc="T T T"
V        0.02966955       0.02986809      -0.02909339       0.14653382       0.08318552       0.58644485
V        0.04144518       1.54141521       2.30339758      -0.14653382      -0.08318551      -0.58644485
2
Lattice="2.583731961 -0.107220156 -0.074913674 -1.190051477 2.291807329 0.21921483 0.006469656 0.15829225 4.306537813" Properties=species:S:1:pos:R:3:forces:R:3 batch_id=T generation=8 composition=V2 config_type=hcp_aa source_path=V-Cr-Ti-W-Zr/Fixed_Engrads/vcrtiwzr_fin_engrads/job_gen_6-2024-12-23/V/V2_hcp_idx_2690 temperature=T date_processed=2025-01-03T17:40:04.229901 structure_type=T structure_index=2690 adversarial_step=T structure_id=7984 energy=-17.269538497924806 stress="-0.11795652710600332 0.0012868431440289808 0.012507041820392042 0.0012868431440289808 -0.13188502269774227 -0.05797733457976571 0.012507041820392042 -0.05797733457976571 -0.17964538132898464" calculation_info="_JSON {\"calculation_id\": 7984, \"calculator\": \"vasp\", \"calculation_source_path\": \"\", \"error\": null, \"status\": \"completed\", \"gpu_count\": null, \"parameters\": {}, \"date_started\": null, \"gpu_memory_mb\": null, \"model_version\": null, \"date_completed\": null, \"runtime_seconds\": null}" parent_id=7984 step=6 variance=0.0032107841689139605 loss=0.0032107841689139605 pbc="T T T"
V        0.03275144       0.03300079      -0.03205300       0.16712634       0.09096708       0.64610147
V        0.03836393       1.53828294       2.30632820      -0.16712633      -0.09096712      -0.64610147
2
Lattice="2.583731961 -0.107220156 -0.074913674 -1.190051477 2.291807329 0.21921483 0.006469656 0.15829225 4.306537813" Properties=species:S:1:pos:R:3:forces:R:3 batch_id=T generation=8 composition=V2 config_type=hcp_aa source_path=V-Cr-Ti-W-Zr/Fixed_Engrads/vcrtiwzr_fin_engrads/job_gen_6-2024-12-23/V/V2_hcp_idx_2690 temperature=T date_processed=2025-01-03T17:40:04.229901 structure_type=T structure_index=2690 adversarial_step=T structure_id=7984 energy=-17.26755714416504 stress="-0.11795652710600332 0.0012868431440289808 0.012507041820392042 0.0012868431440289808 -0.13188502269774227 -0.05797733457976571 0.012507041820392042 -0.05797733457976571 -0.17964538132898464" calculation_info="_JSON {\"calculation_id\": 7984, \"calculator\": \"vasp\", \"calculation_source_path\": \"\", \"error\": null, \"status\": \"completed\", \"gpu_count\": null, \"parameters\": {}, \"date_started\": null, \"gpu_memory_mb\": null, \"model_version\": null, \"date_completed\": null, \"runtime_seconds\": null}" parent_id=7984 step=7 variance=0.0030276982579380274 loss=0.0030276982579380274 pbc="T T T"
V        0.03544230       0.03574062      -0.03462975       0.18548031       0.09725355       0.69808018
V        0.03567394       1.53554375       2.30887821      -0.18548033      -0.09725356      -0.69808018
2
Lattice="2.583731961 -0.107220156 -0.074913674 -1.190051477 2.291807329 0.21921483 0.006469656 0.15829225 4.306537813" Properties=species:S:1:pos:R:3:forces:R:3 batch_id=T generation=8 composition=V2 config_type=hcp_aa source_path=V-Cr-Ti-W-Zr/Fixed_Engrads/vcrtiwzr_fin_engrads/job_gen_6-2024-12-23/V/V2_hcp_idx_2690 temperature=T date_processed=2025-01-03T17:40:04.229901 structure_type=T structure_index=2690 adversarial_step=T structure_id=7984 energy=-17.2657112121582 stress="-0.11795652710600332 0.0012868431440289808 0.012507041820392042 0.0012868431440289808 -0.13188502269774227 -0.05797733457976571 0.012507041820392042 -0.05797733457976571 -0.17964538132898464" calculation_info="_JSON {\"calculation_id\": 7984, \"calculator\": \"vasp\", \"calculation_source_path\": \"\", \"error\": null, \"status\": \"completed\", \"gpu_count\": null, \"parameters\": {}, \"date_started\": null, \"gpu_memory_mb\": null, \"model_version\": null, \"date_completed\": null, \"runtime_seconds\": null}" parent_id=7984 step=8 variance=0.0028756146784871817 loss=0.0028756146784871817 pbc="T T T"
V        0.03781363       0.03815905      -0.03689467       0.20193920       0.10237543       0.74379671
V        0.03330328       1.53312577       2.31111793      -0.20193920      -0.10237543      -0.74379671
2
Lattice="2.583731961 -0.107220156 -0.074913674 -1.190051477 2.291807329 0.21921483 0.006469656 0.15829225 4.306537813" Properties=species:S:1:pos:R:3:forces:R:3 batch_id=T generation=8 composition=V2 config_type=hcp_aa source_path=V-Cr-Ti-W-Zr/Fixed_Engrads/vcrtiwzr_fin_engrads/job_gen_6-2024-12-23/V/V2_hcp_idx_2690 temperature=T date_processed=2025-01-03T17:40:04.229901 structure_type=T structure_index=2690 adversarial_step=T structure_id=7984 energy=-17.263996124267578 stress="-0.11795652710600332 0.0012868431440289808 0.012507041820392042 0.0012868431440289808 -0.13188502269774227 -0.05797733457976571 0.012507041820392042 -0.05797733457976571 -0.17964538132898464" calculation_info="_JSON {\"calculation_id\": 7984, \"calculator\": \"vasp\", \"calculation_source_path\": \"\", \"error\": null, \"status\": \"completed\", \"gpu_count\": null, \"parameters\": {}, \"date_started\": null, \"gpu_memory_mb\": null, \"model_version\": null, \"date_completed\": null, \"runtime_seconds\": null}" parent_id=7984 step=9 variance=0.002746031153947115 loss=0.002746031153947115 pbc="T T T"
V        0.03991813       0.04030849      -0.03889938       0.21676500       0.10657836       0.78429264
V        0.03119951       1.53097667       2.31309904      -0.21676500      -0.10657837      -0.78429264
2
Lattice="2.583731961 -0.107220156 -0.074913674 -1.190051477 2.291807329 0.21921483 0.006469656 0.15829225 4.306537813" Properties=species:S:1:pos:R:3:forces:R:3 batch_id=T generation=8 composition=V2 config_type=hcp_aa source_path=V-Cr-Ti-W-Zr/Fixed_Engrads/vcrtiwzr_fin_engrads/job_gen_6-2024-12-23/V/V2_hcp_idx_2690 temperature=T date_processed=2025-01-03T17:40:04.229901 structure_type=T structure_index=2690 adversarial_step=T structure_id=7984 energy=-17.26240692138672 stress="-0.11795652710600332 0.0012868431440289808 0.012507041820392042 0.0012868431440289808 -0.13188502269774227 -0.05797733457976571 0.012507041820392042 -0.05797733457976571 -0.17964538132898464" calculation_info="_JSON {\"calculation_id\": 7984, \"calculator\": \"vasp\", \"calculation_source_path\": \"\", \"error\": null, \"status\": \"completed\", \"gpu_count\": null, \"parameters\": {}, \"date_started\": null, \"gpu_memory_mb\": null, \"model_version\": null, \"date_completed\": null, \"runtime_seconds\": null}" parent_id=7984 step=10 variance=0.0026340046897530556 loss=0.0026340046897530556 pbc="T T T"
V        0.04179572       0.04222886      -0.04068315       0.23016158       0.11003971       0.82034284
V        0.02932269       1.52905661       2.31486060      -0.23016155      -0.11003973      -0.82034284
2
Lattice="2.583731961 -0.107220156 -0.074913674 -1.190051477 2.291807329 0.21921483 0.006469656 0.15829225 4.306537813" Properties=species:S:1:pos:R:3:forces:R:3 batch_id=T generation=8 composition=V2 config_type=hcp_aa source_path=V-Cr-Ti-W-Zr/Fixed_Engrads/vcrtiwzr_fin_engrads/job_gen_6-2024-12-23/V/V2_hcp_idx_2690 temperature=T date_processed=2025-01-03T17:40:04.229901 structure_type=T structure_index=2690 adversarial_step=T structure_id=7984 energy=-17.260936737060547 stress="-0.11795652710600332 0.0012868431440289808 0.012507041820392042 0.0012868431440289808 -0.13188502269774227 -0.05797733457976571 0.012507041820392042 -0.05797733457976571 -0.17964538132898464" calculation_info="_JSON {\"calculation_id\": 7984, \"calculator\": \"vasp\", \"calculation_source_path\": \"\", \"error\": null, \"status\": \"completed\", \"gpu_count\": null, \"parameters\": {}, \"date_started\": null, \"gpu_memory_mb\": null, \"model_version\": null, \"date_completed\": null, \"runtime_seconds\": null}" parent_id=7984 step=11 variance=0.0025360477156937122 loss=0.0025360477156937122 pbc="T T T"
V        0.04347770       0.04395157      -0.04227689       0.24229431       0.11290187       0.85256988
V        0.02764142       1.52733415       2.31643327      -0.24229434      -0.11290188      -0.85256994
2
Lattice="2.583731961 -0.107220156 -0.074913674 -1.190051477 2.291807329 0.21921483 0.006469656 0.15829225 4.306537813" Properties=species:S:1:pos:R:3:forces:R:3 batch_id=T generation=8 composition=V2 config_type=hcp_aa source_path=V-Cr-Ti-W-Zr/Fixed_Engrads/vcrtiwzr_fin_engrads/job_gen_6-2024-12-23/V/V2_hcp_idx_2690 temperature=T date_processed=2025-01-03T17:40:04.229901 structure_type=T structure_index=2690 adversarial_step=T structure_id=7984 energy=-17.259580612182617 stress="-0.11795652710600332 0.0012868431440289808 0.012507041820392042 0.0012868431440289808 -0.13188502269774227 -0.05797733457976571 0.012507041820392042 -0.05797733457976571 -0.17964538132898464" calculation_info="_JSON {\"calculation_id\": 7984, \"calculator\": \"vasp\", \"calculation_source_path\": \"\", \"error\": null, \"status\": \"completed\", \"gpu_count\": null, \"parameters\": {}, \"date_started\": null, \"gpu_memory_mb\": null, \"model_version\": null, \"date_completed\": null, \"runtime_seconds\": null}" parent_id=7984 step=12 variance=0.00244988314807415 loss=0.00244988314807415 pbc="T T T"
V        0.04498935       0.04550201      -0.04370533       0.25330353       0.11527675       0.88147008
V        0.02613044       1.52578388       2.31784172      -0.25330356      -0.11527679      -0.88147008
2
Lattice="2.583731961 -0.107220156 -0.074913674 -1.190051477 2.291807329 0.21921483 0.006469656 0.15829225 4.306537813" Properties=species:S:1:pos:R:3:forces:R:3 batch_id=T generation=8 composition=V2 config_type=hcp_aa source_path=V-Cr-Ti-W-Zr/Fixed_Engrads/vcrtiwzr_fin_engrads/job_gen_6-2024-12-23/V/V2_hcp_idx_2690 temperature=T date_processed=2025-01-03T17:40:04.229901 structure_type=T structure_index=2690 adversarial_step=T structure_id=7984 energy=-17.25832862854004 stress="-0.11795652710600332 0.0012868431440289808 0.012507041820392042 0.0012868431440289808 -0.13188502269774227 -0.05797733457976571 0.012507041820392042 -0.05797733457976571 -0.17964538132898464" calculation_info="_JSON {\"calculation_id\": 7984, \"calculator\": \"vasp\", \"calculation_source_path\": \"\", \"error\": null, \"status\": \"completed\", \"gpu_count\": null, \"parameters\": {}, \"date_started\": null, \"gpu_memory_mb\": null, \"model_version\": null, \"date_completed\": null, \"runtime_seconds\": null}" parent_id=7984 step=13 variance=0.0023737968876957893 loss=0.0023737968876957893 pbc="T T T"
V        0.04635151       0.04690102      -0.04498881       0.26330626       0.11724935       0.90745163
V        0.02476903       1.52438505       2.31910628      -0.26330626      -0.11724939      -0.90745163
2
Lattice="2.583731961 -0.107220156 -0.074913674 -1.190051477 2.291807329 0.21921483 0.006469656 0.15829225 4.306537813" Properties=species:S:1:pos:R:3:forces:R:3 batch_id=T generation=8 composition=V2 config_type=hcp_aa source_path=V-Cr-Ti-W-Zr/Fixed_Engrads/vcrtiwzr_fin_engrads/job_gen_6-2024-12-23/V/V2_hcp_idx_2690 temperature=T date_processed=2025-01-03T17:40:04.229901 structure_type=T structure_index=2690 adversarial_step=T structure_id=7984 energy=-17.25717887878418 stress="-0.11795652710600332 0.0012868431440289808 0.012507041820392042 0.0012868431440289808 -0.13188502269774227 -0.05797733457976571 0.012507041820392042 -0.05797733457976571 -0.17964538132898464" calculation_info="_JSON {\"calculation_id\": 7984, \"calculator\": \"vasp\", \"calculation_source_path\": \"\", \"error\": null, \"status\": \"completed\", \"gpu_count\": null, \"parameters\": {}, \"date_started\": null, \"gpu_memory_mb\": null, \"model_version\": null, \"date_completed\": null, \"runtime_seconds\": null}" parent_id=7984 step=14 variance=0.0023063053376972675 loss=0.0023063053376972675 pbc="T T T"
V        0.04758148       0.04816591      -0.04614421       0.27240530       0.11889257       0.93084824
V        0.02353973       1.52312023       2.32024373      -0.27240527      -0.11889257      -0.93084812
2
Lattice="2.583731961 -0.107220156 -0.074913674 -1.190051477 2.291807329 0.21921483 0.006469656 0.15829225 4.306537813" Properties=species:S:1:pos:R:3:forces:R:3 batch_id=T generation=8 composition=V2 config_type=hcp_aa source_path=V-Cr-Ti-W-Zr/Fixed_Engrads/vcrtiwzr_fin_engrads/job_gen_6-2024-12-23/V/V2_hcp_idx_2690 temperature=T date_processed=2025-01-03T17:40:04.229901 structure_type=T structure_index=2690 adversarial_step=T structure_id=7984 energy=-17.256122970581053 stress="-0.11795652710600332 0.0012868431440289808 0.012507041820392042 0.0012868431440289808 -0.13188502269774227 -0.05797733457976571 0.012507041820392042 -0.05797733457976571 -0.17964538132898464" calculation_info="_JSON {\"calculation_id\": 7984, \"calculator\": \"vasp\", \"calculation_source_path\": \"\", \"error\": null, \"status\": \"completed\", \"gpu_count\": null, \"parameters\": {}, \"date_started\": null, \"gpu_memory_mb\": null, \"model_version\": null, \"date_completed\": null, \"runtime_seconds\": null}" parent_id=7984 step=15 variance=0.0022464245557785034 loss=0.0022464245557785034 pbc="T T T"
V        0.04869402       0.04931159      -0.04718578       0.28068918       0.12026419       0.95194638
V        0.02242795       1.52197476       2.32126839      -0.28068918      -0.12026421      -0.95194638
2
Lattice="2.583731961 -0.107220156 -0.074913674 -1.190051477 2.291807329 0.21921483 0.006469656 0.15829225 4.306537813" Properties=species:S:1:pos:R:3:forces:R:3 batch_id=T generation=8 composition=V2 config_type=hcp_aa source_path=V-Cr-Ti-W-Zr/Fixed_Engrads/vcrtiwzr_fin_engrads/job_gen_6-2024-12-23/V/V2_hcp_idx_2690 temperature=T date_processed=2025-01-03T17:40:04.229901 structure_type=T structure_index=2690 adversarial_step=T structure_id=7984 energy=-17.255155563354492 stress="-0.11795652710600332 0.0012868431440289808 0.012507041820392042 0.0012868431440289808 -0.13188502269774227 -0.05797733457976571 0.012507041820392042 -0.05797733457976571 -0.17964538132898464" calculation_info="_JSON {\"calculation_id\": 7984, \"calculator\": \"vasp\", \"calculation_source_path\": \"\", \"error\": null, \"status\": \"completed\", \"gpu_count\": null, \"parameters\": {}, \"date_started\": null, \"gpu_memory_mb\": null, \"model_version\": null, \"date_completed\": null, \"runtime_seconds\": null}" parent_id=7984 step=16 variance=0.0021931391675025225 loss=0.0021931391675025225 pbc="T T T"
V        0.04970169       0.05035069      -0.04812586       0.28823262       0.12140840       0.97099459
V        0.02142108       1.52093588       2.32219232      -0.28823259      -0.12140839      -0.97099459
2
Lattice="2.583731961 -0.107220156 -0.074913674 -1.190051477 2.291807329 0.21921483 0.006469656 0.15829225 4.306537813" Properties=species:S:1:pos:R:3:forces:R:3 batch_id=T generation=8 composition=V2 config_type=hcp_aa source_path=V-Cr-Ti-W-Zr/Fixed_Engrads/vcrtiwzr_fin_engrads/job_gen_6-2024-12-23/V/V2_hcp_idx_2690 temperature=T date_processed=2025-01-03T17:40:04.229901 structure_type=T structure_index=2690 adversarial_step=T structure_id=7984 energy=-17.254269409179688 stress="-0.11795652710600332 0.0012868431440289808 0.012507041820392042 0.0012868431440289808 -0.13188502269774227 -0.05797733457976571 0.012507041820392042 -0.05797733457976571 -0.17964538132898464" calculation_info="_JSON {\"calculation_id\": 7984, \"calculator\": \"vasp\", \"calculation_source_path\": \"\", \"error\": null, \"status\": \"completed\", \"gpu_count\": null, \"parameters\": {}, \"date_started\": null, \"gpu_memory_mb\": null, \"model_version\": null, \"date_completed\": null, \"runtime_seconds\": null}" parent_id=7984 step=17 variance=0.002145602600648999 loss=0.002145602600648999 pbc="T T T"
V        0.05061532       0.05129409      -0.04897515       0.29510894       0.12236448       0.98820698
V        0.02050817       1.51999261       2.32302598      -0.29510897      -0.12236450      -0.98820686
2
Lattice="2.583731961 -0.107220156 -0.074913674 -1.190051477 2.291807329 0.21921483 0.006469656 0.15829225 4.306537813" Properties=species:S:1:pos:R:3:forces:R:3 batch_id=T generation=8 composition=V2 config_type=hcp_aa source_path=V-Cr-Ti-W-Zr/Fixed_Engrads/vcrtiwzr_fin_engrads/job_gen_6-2024-12-23/V/V2_hcp_idx_2690 temperature=T date_processed=2025-01-03T17:40:04.229901 structure_type=T structure_index=2690 adversarial_step=T structure_id=7984 energy=-17.253459930419922 stress="-0.11795652710600332 0.0012868431440289808 0.012507041820392042 0.0012868431440289808 -0.13188502269774227 -0.05797733457976571 0.012507041820392042 -0.05797733457976571 -0.17964538132898464" calculation_info="_JSON {\"calculation_id\": 7984, \"calculator\": \"vasp\", \"calculation_source_path\": \"\", \"error\": null, \"status\": \"completed\", \"gpu_count\": null, \"parameters\": {}, \"date_started\": null, \"gpu_memory_mb\": null, \"model_version\": null, \"date_completed\": null, \"runtime_seconds\": null}" parent_id=7984 step=18 variance=0.0021030628122389317 loss=0.0021030628122389317 pbc="T T T"
V        0.05144441       0.05215137      -0.04974287       0.30137464       0.12316357       1.00376439
V        0.01967970       1.51913532       2.32377861      -0.30137464      -0.12316354      -1.00376439
2
Lattice="2.583731961 -0.107220156 -0.074913674 -1.190051477 2.291807329 0.21921483 0.006469656 0.15829225 4.306537813" Properties=species:S:1:pos:R:3:forces:R:3 batch_id=T generation=8 composition=V2 config_type=hcp_aa source_path=V-Cr-Ti-W-Zr/Fixed_Engrads/vcrtiwzr_fin_engrads/job_gen_6-2024-12-23/V/V2_hcp_idx_2690 temperature=T date_processed=2025-01-03T17:40:04.229901 structure_type=T structure_index=2690 adversarial_step=T structure_id=7984 energy=-17.25272216796875 stress="-0.11795652710600332 0.0012868431440289808 0.012507041820392042 0.0012868431440289808 -0.13188502269774227 -0.05797733457976571 0.012507041820392042 -0.05797733457976571 -0.17964538132898464" calculation_info="_JSON {\"calculation_id\": 7984, \"calculator\": \"vasp\", \"calculation_source_path\": \"\", \"error\": null, \"status\": \"completed\", \"gpu_count\": null, \"parameters\": {}, \"date_started\": null, \"gpu_memory_mb\": null, \"model_version\": null, \"date_completed\": null, \"runtime_seconds\": null}" parent_id=7984 step=19 variance=0.002065191511064768 loss=0.002065191511064768 pbc="T T T"
V        0.05219746       0.05293110      -0.05043698       0.30709058       0.12383270       1.01782882
V        0.01892738       1.51835570       2.32445835      -0.30709058      -0.12383266      -1.01782882
2
Lattice="2.583731961 -0.107220156 -0.074913674 -1.190051477 2.291807329 0.21921483 0.006469656 0.15829225 4.306537813" Properties=species:S:1:pos:R:3:forces:R:3 batch_id=T generation=8 composition=V2 config_type=hcp_aa source_path=V-Cr-Ti-W-Zr/Fixed_Engrads/vcrtiwzr_fin_engrads/job_gen_6-2024-12-23/V/V2_hcp_idx_2690 temperature=T date_processed=2025-01-03T17:40:04.229901 structure_type=T structure_index=2690 adversarial_step=T structure_id=7984 energy=-17.252050399780273 stress="-0.11795652710600332 0.0012868431440289808 0.012507041820392042 0.0012868431440289808 -0.13188502269774227 -0.05797733457976571 0.012507041820392042 -0.05797733457976571 -0.17964538132898464" calculation_info="_JSON {\"calculation_id\": 7984, \"calculator\": \"vasp\", \"calculation_source_path\": \"\", \"error\": null, \"status\": \"completed\", \"gpu_count\": null, \"parameters\": {}, \"date_started\": null, \"gpu_memory_mb\": null, \"model_version\": null, \"date_completed\": null, \"runtime_seconds\": null}" parent_id=7984 step=20 variance=0.0020312629640102386 loss=0.0020312629640102386 pbc="T T T"
V        0.05288174       0.05364070      -0.05106476       0.31229895       0.12439460       1.03054845
V        0.01824385       1.51764621       2.32507225      -0.31229895      -0.12439463      -1.03054845
2
Lattice="2.583731961 -0.107220156 -0.074913674 -1.190051477 2.291807329 0.21921483 0.006469656 0.15829225 4.306537813" Properties=species:S:1:pos:R:3:forces:R:3 batch_id=T generation=8 composition=V2 config_type=hcp_aa source_path=V-Cr-Ti-W-Zr/Fixed_Engrads/vcrtiwzr_fin_engrads/job_gen_6-2024-12-23/V/V2_hcp_idx_2690 temperature=T date_processed=2025-01-03T17:40:04.229901 structure_type=T structure_index=2690 adversarial_step=T structure_id=7984 energy=-17.29300422668457 stress="-0.11795652710600332 0.0012868431440289808 0.012507041820392042 0.0012868431440289808 -0.13188502269774227 -0.05797733457976571 0.012507041820392042 -0.05797733457976571 -0.17964538132898464" calculation_info="_JSON {\"calculation_id\": 7984, \"calculator\": \"vasp\", \"calculation_source_path\": \"\", \"error\": null, \"status\": \"completed\", \"gpu_count\": null, \"parameters\": {}, \"date_started\": null, \"gpu_memory_mb\": null, \"model_version\": null, \"date_completed\": null, \"runtime_seconds\": null}" parent_id=7984 step=21 variance=0.0031247329898178577 loss=0.0031247329898178577 pbc="T T T"
V        0.09035384       0.00219602       0.05426410       0.22376087       0.07226695       0.09821492
V        0.06136556       1.54644031       2.33917246      -0.22376084      -0.07226697      -0.09821489
2