6
Lattice="0.027901732 3.751294276 3.68899635 3.694685635 -0.069976294 3.682744209 3.732161762 3.703071379 -0.051115103" Properties=species:S:1:pos:R:3:forces:R:3 batch_id=T generation=6 composition=V6 config_type=C15 source_path=V-Cr-Ti-W-Zr/Fixed_Engrads/vcrtiwzr_fin_engrads/job_gen_6-2024-12-23/V/V6_C15_idx_3015 temperature=T date_processed=2025-01-03T17:40:28.188756 structure_type=T structure_index=3015 adversarial_step=T structure_id=8328 energy=-51.196716 stress="0.15214329483742273 -0.0004354326426581197 -0.00046116014327501035 -0.0004354326426581197 0.15496077447193768 -0.0006224969126699668 -0.00046116014327501035 -0.0006224969126699668 0.15255182033423914" calculation_info="_JSON {\"calculation_id\": 8328, \"calculator\": \"vasp\", \"calculation_source_path\": \"\", \"error\": null, \"status\": \"completed\", \"gpu_count\": null, \"parameters\": {}, \"date_started\": null, \"gpu_memory_mb\": null, \"model_version\": null, \"date_completed\": null, \"runtime_seconds\": null}" pbc="T T T"
V        0.93184000       0.92305000       0.91508000       0.00000000       0.00000000       0.00000000
V        2.77919000       0.88806000       2.75645000       0.00000000       0.00000000       0.00000000
V        2.79792000       2.77458000       0.88952000       0.00000000       0.00000000       0.00000000
V        0.94579000       2.79870000       2.75958000       0.00000000       0.00000000       0.00000000
V        3.72737000       3.69219000       3.66031000       0.00561400       0.00221800       0.00373600
V        5.59106000       5.53829000       5.49047000      -0.00561400      -0.00221800      -0.00373600
6
Lattice="0.027901732 3.751294276 3.68899635 3.694685635 -0.069976294 3.682744209 3.732161762 3.703071379 -0.051115103" Properties=species:S:1:pos:R:3:forces:R:3 batch_id=T generation=8 composition=V6 config_type=C15_aa source_path=V-Cr-Ti-W-Zr/Fixed_Engrads/vcrtiwzr_fin_engrads/job_gen_6-2024-12-23/V/V6_C15_idx_3015 temperature=T date_processed=2025-01-03T17:40:28.188756 structure_type=T structure_index=3015 adversarial_step=T structure_id=8328 energy=-51.18607711791992 stress="0.15214329483742273 -0.0004354326426581197 -0.00046116014327501035 -0.0004354326426581197 0.15496077447193768 -0.0006224969126699668 -0.00046116014327501035 -0.0006224969126699668 0.15255182033423914" calculation_info="_JSON {\"calculation_id\": 8328, \"calculator\": \"vasp\", \"calculation_source_path\": \"\", \"error\": null, \"status\": \"completed\", \"gpu_count\": null, \"parameters\": {}, \"date_started\": null, \"gpu_memory_mb\": null, \"model_version\": null, \"date_completed\": null, \"runtime_seconds\": null}" parent_id=8328 step=0 variance=0.24974383413791656 loss=0.24974383413791656 pbc="T T T"
V        0.93184000       0.92305000       0.91508000       0.00000524      -0.00001061       0.00000016
V        2.77919000       0.88806000       2.75645000      -0.00003531       0.00000010       0.00000038
V        2.79792000       2.77458000       0.88952000       0.00001250       0.00002228       0.00000215
V        0.94579000       2.79870000       2.75958000       0.00002179      -0.00004039      -0.00002748
V        3.72737000       3.69219000       3.66031000       0.00561142       0.00415095       0.00392706
V        5.59106000       5.53829000       5.49047000      -0.00561568      -0.00412235      -0.00390236
6
Lattice="0.027901732 3.751294276 3.68899635 3.694685635 -0.069976294 3.682744209 3.732161762 3.703071379 -0.051115103" Properties=species:S:1:pos:R:3:forces:R:3 batch_id=T generation=8 composition=V6 config_type=C15_aa source_path=V-Cr-Ti-W-Zr/Fixed_Engrads/vcrtiwzr_fin_engrads/job_gen_6-2024-12-23/V/V6_C15_idx_3015 temperature=T date_processed=2025-01-03T17:40:28.188756 structure_type=T structure_index=3015 adversarial_step=T structure_id=8328 energy=-51.18102111816406 stress="0.15214329483742273 -0.0004354326426581197 -0.00046116014327501035 -0.0004354326426581197 0.15496077447193768 -0.0006224969126699668 -0.00046116014327501035 -0.0006224969126699668 0.15255182033423914" calculation_info="_JSON {\"calculation_id\": 8328, \"calculator\": \"vasp\", \"calculation_source_path\": \"\", \"error\": null, \"status\": \"completed\", \"gpu_count\": null, \"parameters\": {}, \"date_started\": null, \"gpu_memory_mb\": null, \"model_version\": null, \"date_completed\": null, \"runtime_seconds\": null}" parent_id=8328 step=1 variance=0.012009928934276104 loss=0.012009928934276104 pbc="T T T"
V        0.94184000       0.93305000       0.92508000      -0.05148218      -0.05026989      -0.05096472
V        2.78919000       0.89806000       2.76645000      -0.03932764      -0.03445688      -0.03918860
V        2.80792000       2.78458000       0.89952000      -0.04288947      -0.04128335      -0.03428132
V        0.95579000       2.80870000       2.76958000      -0.03423277      -0.04228423      -0.04359403
V        3.71737000       3.68219000       3.65031000       0.09165692       0.09027964       0.08993440
V        5.58106000       5.52829000       5.48047000       0.07627518       0.07801476       0.07809429
6
Lattice="0.027901732 3.751294276 3.68899635 3.694685635 -0.069976294 3.682744209 3.732161762 3.703071379 -0.051115103" Properties=species:S:1:pos:R:3:forces:R:3 batch_id=T generation=8 composition=V6 config_type=C15_aa source_path=V-Cr-Ti-W-Zr/Fixed_Engrads/vcrtiwzr_fin_engrads/job_gen_6-2024-12-23/V/V6_C15_idx_3015 temperature=T date_processed=2025-01-03T17:40:28.188756 structure_type=T structure_index=3015 adversarial_step=T structure_id=8328 energy=-51.17204284667969 stress="0.15214329483742273 -0.0004354326426581197 -0.00046116014327501035 -0.0004354326426581197 0.15496077447193768 -0.0006224969126699668 -0.00046116014327501035 -0.0006224969126699668 0.15255182033423914" calculation_info="_JSON {\"calculation_id\": 8328, \"calculator\": \"vasp\", \"calculation_source_path\": \"\", \"error\": null, \"status\": \"completed\", \"gpu_count\": null, \"parameters\": {}, \"date_started\": null, \"gpu_memory_mb\": null, \"model_version\": null, \"date_completed\": null, \"runtime_seconds\": null}" parent_id=8328 step=2 variance=0.012240883894264698 loss=0.012240883894264698 pbc="T T T"
V        0.94852441       0.93974353       0.93177487      -0.08573584      -0.08372522      -0.08491848
V        2.79593386       0.90473725       2.77316798      -0.06515022      -0.05637622      -0.06482907
V        2.81463566       2.79129474       0.90619137      -0.07094194      -0.06826271      -0.05609468
V        0.96246605       2.81542484       2.77629836      -0.05601223      -0.06996717      -0.07212313
V        3.71067647       3.67548968       3.64360872       0.15024066       0.14880052       0.14843164
V        5.57435837       5.52158885       5.47376984       0.12759960       0.12953082       0.12953366
6
Lattice="0.027901732 3.751294276 3.68899635 3.694685635 -0.069976294 3.682744209 3.732161762 3.703071379 -0.051115103" Properties=species:S:1:pos:R:3:forces:R:3 batch_id=T generation=8 composition=V6 config_type=C15_aa source_path=V-Cr-Ti-W-Zr/Fixed_Engrads/vcrtiwzr_fin_engrads/job_gen_6-2024-12-23/V/V6_C15_idx_3015 temperature=T date_processed=2025-01-03T17:40:28.188756 structure_type=T structure_index=3015 adversarial_step=T structure_id=8328 energy=-51.162112426757815 stress="0.15214329483742273 -0.0004354326426581197 -0.00046116014327501035 -0.0004354326426581197 0.15496077447193768 -0.0006224969126699668 -0.00046116014327501035 -0.0006224969126699668 0.15255182033423914" calculation_info="_JSON {\"calculation_id\": 8328, \"calculator\": \"vasp\", \"calculation_source_path\": \"\", \"error\": null, \"status\": \"completed\", \"gpu_count\": null, \"parameters\": {}, \"date_started\": null, \"gpu_memory_mb\": null, \"model_version\": null, \"date_completed\": null, \"runtime_seconds\": null}" parent_id=8328 step=3 variance=0.012468594126403332 loss=0.012468594126403332 pbc="T T T"
V        0.95368345       0.94491431       0.93694728      -0.11204970      -0.10941597      -0.11101534
V        2.80116931       0.90988670       2.77836993      -0.08447424      -0.07225069      -0.08394544
V        2.81983459       2.79649256       0.91133318      -0.09187589      -0.08836432      -0.07190825
V        0.96761415       2.82063574       2.78150092      -0.07177921      -0.09066154      -0.09344864
V        3.70550527       3.67031055       3.63842892       0.19535923       0.19380353       0.19345596
V        5.56917762       5.51640868       5.46859088       0.16481985       0.16688900       0.16686174
6
Lattice="0.027901732 3.751294276 3.68899635 3.694685635 -0.069976294 3.682744209 3.732161762 3.703071379 -0.051115103" Properties=species:S:1:pos:R:3:forces:R:3 batch_id=T generation=8 composition=V6 config_type=C15_aa source_path=V-Cr-Ti-W-Zr/Fixed_Engrads/vcrtiwzr_fin_engrads/job_gen_6-2024-12-23/V/V6_C15_idx_3015 temperature=T date_processed=2025-01-03T17:40:28.188756 structure_type=T structure_index=3015 adversarial_step=T structure_id=8328 energy=-51.152099609375 stress="0.15214329483742273 -0.0004354326426581197 -0.00046116014327501035 -0.0004354326426581197 0.15496077447193768 -0.0006224969126699668 -0.00046116014327501035 -0.0006224969126699668 0.15255182033423914" calculation_info="_JSON {\"calculation_id\": 8328, \"calculator\": \"vasp\", \"calculation_source_path\": \"\", \"error\": null, \"status\": \"completed\", \"gpu_count\": null, \"parameters\": {}, \"date_started\": null, \"gpu_memory_mb\": null, \"model_version\": null, \"date_completed\": null, \"runtime_seconds\": null}" parent_id=8328 step=4 variance=0.012686560861766338 loss=0.012686560861766338 pbc="T T T"
V        0.95790391       0.94914761       0.94118240      -0.13348074      -0.13032262      -0.13227355
V        2.80547336       0.91409634       2.78263742      -0.09973546      -0.08435388      -0.09900443
V        2.82409867       2.80075539       0.91553444      -0.10837098      -0.10418028      -0.08397160
V        0.97182221       2.82491260       2.78576873      -0.08381496      -0.10696995      -0.11025973
V        3.70126935       3.66606807       3.63418589       0.23189096       0.23016548       0.22986987
V        5.56493345       5.51216502       5.46434857       0.19351120       0.19566131       0.19563946
6
Lattice="0.027901732 3.751294276 3.68899635 3.694685635 -0.069976294 3.682744209 3.732161762 3.703071379 -0.051115103" Properties=species:S:1:pos:R:3:forces:R:3 batch_id=T generation=8 composition=V6 config_type=C15_aa source_path=V-Cr-Ti-W-Zr/Fixed_Engrads/vcrtiwzr_fin_engrads/job_gen_6-2024-12-23/V/V6_C15_idx_3015 temperature=T date_processed=2025-01-03T17:40:28.188756 structure_type=T structure_index=3015 adversarial_step=T structure_id=8328 energy=-51.14236297607422 stress="0.15214329483742273 -0.0004354326426581197 -0.00046116014327501035 -0.0004354326426581197 0.15496077447193768 -0.0006224969126699668 -0.00046116014327501035 -0.0006224969126699668 0.15255182033423914" calculation_info="_JSON {\"calculation_id\": 8328, \"calculator\": \"vasp\", \"calculation_source_path\": \"\", \"error\": null, \"status\": \"completed\", \"gpu_count\": null, \"parameters\": {}, \"date_started\": null, \"gpu_memory_mb\": null, \"model_version\": null, \"date_completed\": null, \"runtime_seconds\": null}" parent_id=8328 step=5 variance=0.012904954142868519 loss=0.012904954142868519 pbc="T T T"
V        0.96146702       0.95272408       0.94476067      -0.15149160      -0.14787777      -0.15014264
V        2.80912356       0.91764776       2.78624926      -0.11216086      -0.09383564      -0.11121640
V        2.82770701       2.80436246       0.91907717      -0.12176739      -0.11699645      -0.09343167
V        0.97537205       2.82853441       2.78938094      -0.09323631      -0.12023935      -0.12393860
V        3.69768875       3.66248212       3.63059940       0.26227084       0.26036209       0.26013249
V        5.56134604       5.50857838       5.46076296       0.21638532       0.21858719       0.21859679
6
Lattice="0.027901732 3.751294276 3.68899635 3.694685635 -0.069976294 3.682744209 3.732161762 3.703071379 -0.051115103" Properties=species:S:1:pos:R:3:forces:R:3 batch_id=T generation=8 composition=V6 config_type=C15_aa source_path=V-Cr-Ti-W-Zr/Fixed_Engrads/vcrtiwzr_fin_engrads/job_gen_6-2024-12-23/V/V6_C15_idx_3015 temperature=T date_processed=2025-01-03T17:40:28.188756 structure_type=T structure_index=3015 adversarial_step=T structure_id=8328 energy=-51.13306579589844 stress="0.15214329483742273 -0.0004354326426581197 -0.00046116014327501035 -0.0004354326426581197 0.15496077447193768 -0.0006224969126699668 -0.00046116014327501035 -0.0006224969126699668 0.15255182033423914" calculation_info="_JSON {\"calculation_id\": 8328, \"calculator\": \"vasp\", \"calculation_source_path\": \"\", \"error\": null, \"status\": \"completed\", \"gpu_count\": null, \"parameters\": {}, \"date_started\": null, \"gpu_memory_mb\": null, \"model_version\": null, \"date_completed\": null, \"runtime_seconds\": null}" parent_id=8328 step=6 variance=0.013126087374985218 loss=0.013126087374985218 pbc="T T T"
V        0.96453466       0.95580523       0.94784356      -0.16692293      -0.16290635      -0.16545458
V        2.81227987       0.92070295       2.78936635      -0.12248264      -0.10137554      -0.12132914
V        2.83082042       2.80747463       0.92212346      -0.13286701      -0.12759447      -0.10096440
V        0.97842570       2.83166165       2.79249832      -0.10073224      -0.13123962      -0.13527921
V        3.69460168       3.65939134       3.62750819       0.28796580       0.28586251       0.28571391
V        5.55825398       5.50548738       5.45767277       0.23503892       0.23725347       0.23731336
6
Lattice="0.027901732 3.751294276 3.68899635 3.694685635 -0.069976294 3.682744209 3.732161762 3.703071379 -0.051115103" Properties=species:S:1:pos:R:3:forces:R:3 batch_id=T generation=8 composition=V6 config_type=C15_aa source_path=V-Cr-Ti-W-Zr/Fixed_Engrads/vcrtiwzr_fin_engrads/job_gen_6-2024-12-23/V/V6_C15_idx_3015 temperature=T date_processed=2025-01-03T17:40:28.188756 structure_type=T structure_index=3015 adversarial_step=T structure_id=8328 energy=-51.12428283691406 stress="0.15214329483742273 -0.0004354326426581197 -0.00046116014327501035 -0.0004354326426581197 0.15496077447193768 -0.0006224969126699668 -0.00046116014327501035 -0.0006224969126699668 0.15255182033423914" calculation_info="_JSON {\"calculation_id\": 8328, \"calculator\": \"vasp\", \"calculation_source_path\": \"\", \"error\": null, \"status\": \"completed\", \"gpu_count\": null, \"parameters\": {}, \"date_started\": null, \"gpu_memory_mb\": null, \"model_version\": null, \"date_completed\": null, \"runtime_seconds\": null}" parent_id=8328 step=7 variance=0.013350865803658962 loss=0.013350865803658962 pbc="T T T"
V        0.96721089       0.95849493       0.95053492      -0.18032049      -0.17594734      -0.17874727
V        2.81504524       0.92336601       2.79209205      -0.13117473      -0.10744103      -0.12981461
V        2.83354250       2.81019545       0.92477759      -0.14219509      -0.13648684      -0.10702027
V        0.98108731       2.83439764       2.79522440      -0.10675200      -0.14049983      -0.14482062
V        3.69190530       3.65669192       3.62480843       0.30995592       0.30766678       0.30758852
V        5.55555377       5.50278829       5.45497431       0.25048646       0.25270829       0.25281420
6
Lattice="0.027901732 3.751294276 3.68899635 3.694685635 -0.069976294 3.682744209 3.732161762 3.703071379 -0.051115103" Properties=species:S:1:pos:R:3:forces:R:3 batch_id=T generation=8 composition=V6 config_type=C15_aa source_path=V-Cr-Ti-W-Zr/Fixed_Engrads/vcrtiwzr_fin_engrads/job_gen_6-2024-12-23/V/V6_C15_idx_3015 temperature=T date_processed=2025-01-03T17:40:28.188756 structure_type=T structure_index=3015 adversarial_step=T structure_id=8328 energy=-51.11604690551758 stress="0.15214329483742273 -0.0004354326426581197 -0.00046116014327501035 -0.0004354326426581197 0.15496077447193768 -0.0006224969126699668 -0.00046116014327501035 -0.0006224969126699668 0.15255182033423914" calculation_info="_JSON {\"calculation_id\": 8328, \"calculator\": \"vasp\", \"calculation_source_path\": \"\", \"error\": null, \"status\": \"completed\", \"gpu_count\": null, \"parameters\": {}, \"date_started\": null, \"gpu_memory_mb\": null, \"model_version\": null, \"date_completed\": null, \"runtime_seconds\": null}" parent_id=8328 step=8 variance=0.013577338308095932 loss=0.013577338308095932 pbc="T T T"
V        0.96956780       0.96086517       0.95290671      -0.19207603      -0.18738024      -0.19040899
V        2.81749124       0.92570914       2.79449813      -0.13857801      -0.11234622      -0.13701706
V        2.83594493       2.81259667       0.92711171      -0.15010989      -0.14401826      -0.11192746
V        0.98342900       2.83681413       2.79763088      -0.11162005      -0.14837264      -0.15293120
V        3.68952652       3.65431215       3.62242831       0.32894808       0.32647195       0.32647380
V        5.55317338       5.50040908       5.45259562       0.26343578       0.26564553       0.26581088
6
Lattice="0.027901732 3.751294276 3.68899635 3.694685635 -0.069976294 3.682744209 3.732161762 3.703071379 -0.051115103" Properties=species:S:1:pos:R:3:forces:R:3 batch_id=T generation=8 composition=V6 config_type=C15_aa source_path=V-Cr-Ti-W-Zr/Fixed_Engrads/vcrtiwzr_fin_engrads/job_gen_6-2024-12-23/V/V6_C15_idx_3015 temperature=T date_processed=2025-01-03T17:40:28.188756 structure_type=T structure_index=3015 adversarial_step=T structure_id=8328 energy=-51.10835723876953 stress="0.15214329483742273 -0.0004354326426581197 -0.00046116014327501035 -0.0004354326426581197 0.15496077447193768 -0.0006224969126699668 -0.00046116014327501035 -0.0006224969126699668 0.15255182033423914" calculation_info="_JSON {\"calculation_id\": 8328, \"calculator\": \"vasp\", \"calculation_source_path\": \"\", \"error\": null, \"status\": \"completed\", \"gpu_count\": null, \"parameters\": {}, \"date_started\": null, \"gpu_memory_mb\": null, \"model_version\": null, \"date_completed\": null, \"runtime_seconds\": null}" parent_id=8328 step=9 variance=0.013804747723042965 loss=0.013804747723042965 pbc="T T T"
V        0.97165797       0.96296852       0.95501155      -0.20244631      -0.19746289      -0.20069921
V        2.81967018       0.92778495       2.79663709      -0.14494601      -0.11633025      -0.14318493
V        2.83808025       2.81473081       0.92917852      -0.15690032      -0.15046540      -0.11591396
V        0.98550348       2.83896356       2.79977023      -0.11557026      -0.15512404      -0.15988907
V        3.68741314       3.65219932       3.62031523       0.34545857       0.34280071       0.34287679
V        5.55106032       5.49829722       5.45048419       0.27440444       0.27658194       0.27681041
6
Lattice="0.027901732 3.751294276 3.68899635 3.694685635 -0.069976294 3.682744209 3.732161762 3.703071379 -0.051115103" Properties=species:S:1:pos:R:3:forces:R:3 batch_id=T generation=8 composition=V6 config_type=C15_aa source_path=V-Cr-Ti-W-Zr/Fixed_Engrads/vcrtiwzr_fin_engrads/job_gen_6-2024-12-23/V/V6_C15_idx_3015 temperature=T date_processed=2025-01-03T17:40:28.188756 structure_type=T structure_index=3015 adversarial_step=T structure_id=8328 energy=-51.10120391845703 stress="0.15214329483742273 -0.0004354326426581197 -0.00046116014327501035 -0.0004354326426581197 0.15496077447193768 -0.0006224969126699668 -0.00046116014327501035 -0.0006224969126699668 0.15255182033423914" calculation_info="_JSON {\"calculation_id\": 8328, \"calculator\": \"vasp\", \"calculation_source_path\": \"\", \"error\": null, \"status\": \"completed\", \"gpu_count\": null, \"parameters\": {}, \"date_started\": null, \"gpu_memory_mb\": null, \"model_version\": null, \"date_completed\": null, \"runtime_seconds\": null}" parent_id=8328 step=10 variance=0.014032572507858276 loss=0.014032572507858276 pbc="T T T"
V        0.97352160       0.96484508       0.95688948      -0.21165189      -0.20640740      -0.20983195
V        2.82162180       0.92963357       2.79854889      -0.15045956      -0.11957169      -0.14850442
V        2.83998839       2.81663777       0.93101818      -0.16275544      -0.15601242      -0.11916043
V        0.98735084       2.84088579       2.80168234      -0.11878177      -0.16097067      -0.16590384
V        3.68552552       3.65031349       3.61842914       0.35989186       0.35705942       0.35720715
V        5.54917462       5.49641272       5.44860008       0.28375682       0.28590283       0.28619346
6
Lattice="0.027901732 3.751294276 3.68899635 3.694685635 -0.069976294 3.682744209 3.732161762 3.703071379 -0.051115103" Properties=species:S:1:pos:R:3:forces:R:3 batch_id=T generation=8 composition=V6 config_type=C15_aa source_path=V-Cr-Ti-W-Zr/Fixed_Engrads/vcrtiwzr_fin_engrads/job_gen_6-2024-12-23/V/V6_C15_idx_3015 temperature=T date_processed=2025-01-03T17:40:28.188756 structure_type=T structure_index=3015 adversarial_step=T structure_id=8328 energy=-51.09456329345703 stress="0.15214329483742273 -0.0004354326426581197 -0.00046116014327501035 -0.0004354326426581197 0.15496077447193768 -0.0006224969126699668 -0.00046116014327501035 -0.0006224969126699668 0.15255182033423914" calculation_info="_JSON {\"calculation_id\": 8328, \"calculator\": \"vasp\", \"calculation_source_path\": \"\", \"error\": null, \"status\": \"completed\", \"gpu_count\": null, \"parameters\": {}, \"date_started\": null, \"gpu_memory_mb\": null, \"model_version\": null, \"date_completed\": null, \"runtime_seconds\": null}" parent_id=8328 step=11 variance=0.014259335584938526 loss=0.014259335584938526 pbc="T T T"
V        0.97519017       0.96652625       0.95857192      -0.21986213      -0.21438400      -0.21797922
V        2.82337756       0.93128649       2.80026489      -0.15526880      -0.12220876      -0.15312426
V        2.84170075       2.81834896       0.93266222      -0.16784188      -0.16082625      -0.12180392
V        0.98900253       2.84261213       2.80339860      -0.12139591      -0.16604534      -0.17112903
V        3.68383095       3.64862307       3.61673861       0.37257355       0.36956963       0.36978713
V        5.54748481       5.49472419       5.44691177       0.29179510       0.29389468       0.29424936
6
Lattice="0.027901732 3.751294276 3.68899635 3.694685635 -0.069976294 3.682744209 3.732161762 3.703071379 -0.051115103" Properties=species:S:1:pos:R:3:forces:R:3 batch_id=T generation=8 composition=V6 config_type=C15_aa source_path=V-Cr-Ti-W-Zr/Fixed_Engrads/vcrtiwzr_fin_engrads/job_gen_6-2024-12-23/V/V6_C15_idx_3015 temperature=T date_processed=2025-01-03T17:40:28.188756 structure_type=T structure_index=3015 adversarial_step=T structure_id=8328 energy=-51.088416290283206 stress="0.15214329483742273 -0.0004354326426581197 -0.00046116014327501035 -0.0004354326426581197 0.15496077447193768 -0.0006224969126699668 -0.00046116014327501035 -0.0006224969126699668 0.15255182033423914" calculation_info="_JSON {\"calculation_id\": 8328, \"calculator\": \"vasp\", \"calculation_source_path\": \"\", \"error\": null, \"status\": \"completed\", \"gpu_count\": null, \"parameters\": {}, \"date_started\": null, \"gpu_memory_mb\": null, \"model_version\": null, \"date_completed\": null, \"runtime_seconds\": null}" parent_id=8328 step=12 variance=0.014483194798231125 loss=0.014483194798231125 pbc="T T T"
V        0.97668899       0.96803737       0.96008420      -0.22720799      -0.22152014      -0.22526200
V        2.82496255       0.93276903       2.80181031      -0.15949775      -0.12435393      -0.15716231
V        2.84324252       2.81988960       0.93413588      -0.17228046      -0.16502008      -0.12395887
V        0.99048384       2.84416786       2.80494426      -0.12351890      -0.17049177      -0.17569903
V        3.68230476       3.64710278       3.61521826       0.38376355       0.38059098       0.38087469
V        5.54596543       5.49320616       5.44539386       0.29874164       0.30079499       0.30120748
6
Lattice="0.027901732 3.751294276 3.68899635 3.694685635 -0.069976294 3.682744209 3.732161762 3.703071379 -0.051115103" Properties=species:S:1:pos:R:3:forces:R:3 batch_id=T generation=8 composition=V6 config_type=C15_aa source_path=V-Cr-Ti-W-Zr/Fixed_Engrads/vcrtiwzr_fin_engrads/job_gen_6-2024-12-23/V/V6_C15_idx_3015 temperature=T date_processed=2025-01-03T17:40:28.188756 structure_type=T structure_index=3015 adversarial_step=T structure_id=8328 energy=-51.08273162841797 stress="0.15214329483742273 -0.0004354326426581197 -0.00046116014327501035 -0.0004354326426581197 0.15496077447193768 -0.0006224969126699668 -0.00046116014327501035 -0.0006224969126699668 0.15255182033423914" calculation_info="_JSON {\"calculation_id\": 8328, \"calculator\": \"vasp\", \"calculation_source_path\": \"\", \"error\": null, \"status\": \"completed\", \"gpu_count\": null, \"parameters\": {}, \"date_started\": null, \"gpu_memory_mb\": null, \"model_version\": null, \"date_completed\": null, \"runtime_seconds\": null}" parent_id=8328 step=13 variance=0.014702738262712955 loss=0.014702738262712955 pbc="T T T"
V        0.97803875       0.96939919       0.96144708      -0.23379087      -0.22791028      -0.23179337
V        2.82639750       0.93410197       2.80320593      -0.16322057      -0.12609687      -0.16070583
V        2.84463448       2.82128048       0.93545999      -0.17617752      -0.16869564      -0.12571211
V        0.99181560       2.84557374       2.80634006      -0.12524313      -0.17439936      -0.17971405
V        3.68092420       3.64573168       3.61384726       0.39366919       0.39033112       0.39067504
V        5.54459575       5.49183797       5.44402569       0.30476293       0.30677110       0.30725032
6
Lattice="0.027901732 3.751294276 3.68899635 3.694685635 -0.069976294 3.682744209 3.732161762 3.703071379 -0.051115103" Properties=species:S:1:pos:R:3:forces:R:3 batch_id=T generation=8 composition=V6 config_type=C15_aa source_path=V-Cr-Ti-W-Zr/Fixed_Engrads/vcrtiwzr_fin_engrads/job_gen_6-2024-12-23/V/V6_C15_idx_3015 temperature=T date_processed=2025-01-03T17:40:28.188756 structure_type=T structure_index=3015 adversarial_step=T structure_id=8328 energy=-51.077483367919925 stress="0.15214329483742273 -0.0004354326426581197 -0.00046116014327501035 -0.0004354326426581197 0.15496077447193768 -0.0006224969126699668 -0.00046116014327501035 -0.0006224969126699668 0.15255182033423914" calculation_info="_JSON {\"calculation_id\": 8328, \"calculator\": \"vasp\", \"calculation_source_path\": \"\", \"error\": null, \"status\": \"completed\", \"gpu_count\": null, \"parameters\": {}, \"date_started\": null, \"gpu_memory_mb\": null, \"model_version\": null, \"date_completed\": null, \"runtime_seconds\": null}" parent_id=8328 step=14 variance=0.014918636530637741 loss=0.014918636530637741 pbc="T T T"
V        0.97925694       0.97062911       0.96267797      -0.23971494      -0.23366198      -0.23766954
V        2.82769987       0.93530270       2.80446916      -0.16653299      -0.12749775      -0.16383529
V        2.84589403       2.82253896       0.93665193      -0.17961130      -0.17192777      -0.12713119
V        0.99301519       2.84684713       2.80760343      -0.12663765      -0.17785606      -0.18325196
V        3.67967332       3.64449249       3.61260819       0.40246874       0.39896417       0.39937434
V        5.54335855       5.49060237       5.44278998       0.31002817       0.31197941       0.31251359
6
Lattice="0.027901732 3.751294276 3.68899635 3.694685635 -0.069976294 3.682744209 3.732161762 3.703071379 -0.051115103" Properties=species:S:1:pos:R:3:forces:R:3 batch_id=T generation=8 composition=V6 config_type=C15_aa source_path=V-Cr-Ti-W-Zr/Fixed_Engrads/vcrtiwzr_fin_engrads/job_gen_6-2024-12-23/V/V6_C15_idx_3015 temperature=T date_processed=2025-01-03T17:40:28.188756 structure_type=T structure_index=3015 adversarial_step=T structure_id=8328 energy=-51.07264022827148 stress="0.15214329483742273 -0.0004354326426581197 -0.00046116014327501035 -0.0004354326426581197 0.15496077447193768 -0.0006224969126699668 -0.00046116014327501035 -0.0006224969126699668 0.15255182033423914" calculation_info="_JSON {\"calculation_id\": 8328, \"calculator\": \"vasp\", \"calculation_source_path\": \"\", \"error\": null, \"status\": \"completed\", \"gpu_count\": null, \"parameters\": {}, \"date_started\": null, \"gpu_memory_mb\": null, \"model_version\": null, \"date_completed\": null, \"runtime_seconds\": null}" parent_id=8328 step=15 variance=0.01513157319277525 loss=0.01513157319277525 pbc="T T T"
V        0.98035833       0.97174186       0.96379161      -0.24504778      -0.23884051      -0.24295743
V        2.82888433       0.93638594       2.80561470      -0.16948566      -0.12861918      -0.16661064
V        2.84703590       2.82367980       0.93772649      -0.18265800      -0.17479286      -0.12826240
V        0.99409734       2.84800273       2.80874907      -0.12775919      -0.18091901      -0.18638779
V        3.67853763       3.64337063       3.61148653       0.41031140       0.40663832       0.40709767
V        5.54223917       5.48948470       5.44167199       0.31463930       0.31653315       0.31712055
6