2
Lattice="2.926743019 0.080738864 -0.172397724 -1.391360048 2.704267123 0.114975093 -0.274876868 -0.184493198 4.659126923" Properties=species:S:1:pos:R:3:forces:R:3 batch_id=T generation=6 composition=V2 config_type=hcp source_path=V-Cr-Ti-W-Zr/Fixed_Engrads/vcrtiwzr_fin_engrads/job_gen_6-2024-12-23/V/V2_hcp_idx_2663 temperature=T date_processed=2025-01-03T17:40:01.728624 structure_type=T structure_index=2663 adversarial_step=T structure_id=7957 energy=-16.323568 stress="0.18670127632410402 -0.007893630349995432 0.01884880206585524 -0.007893630349995432 0.1719150038916858 0.008561783901921234 0.01884880206585524 0.008561783901921234 0.16912156655032376" calculation_info="_JSON {\"calculation_id\": 7957, \"calculator\": \"vasp\", \"calculation_source_path\": \"\", \"error\": null, \"status\": \"completed\", \"gpu_count\": null, \"parameters\": {}, \"date_started\": null, \"gpu_memory_mb\": null, \"model_version\": null, \"date_completed\": null, \"runtime_seconds\": null}" pbc="T T T"
V        0.00000000       0.00000000       0.00000000      -0.11914400       0.18684500       0.02163500
V       -0.08943000       1.73751000       2.34875000       0.11914400      -0.18684500      -0.02163500
2
Lattice="2.926743019 0.080738864 -0.172397724 -1.391360048 2.704267123 0.114975093 -0.274876868 -0.184493198 4.659126923" Properties=species:S:1:pos:R:3:forces:R:3 batch_id=T generation=8 composition=V2 config_type=hcp_aa source_path=V-Cr-Ti-W-Zr/Fixed_Engrads/vcrtiwzr_fin_engrads/job_gen_6-2024-12-23/V/V2_hcp_idx_2663 temperature=T date_processed=2025-01-03T17:40:01.728624 structure_type=T structure_index=2663 adversarial_step=T structure_id=7957 energy=-16.39048500061035 stress="0.18670127632410402 -0.007893630349995432 0.01884880206585524 -0.007893630349995432 0.1719150038916858 0.008561783901921234 0.01884880206585524 0.008561783901921234 0.16912156655032376" calculation_info="_JSON {\"calculation_id\": 7957, \"calculator\": \"vasp\", \"calculation_source_path\": \"\", \"error\": null, \"status\": \"completed\", \"gpu_count\": null, \"parameters\": {}, \"date_started\": null, \"gpu_memory_mb\": null, \"model_version\": null, \"date_completed\": null, \"runtime_seconds\": null}" parent_id=7957 step=0 variance=0.24057301878929138 loss=0.24057301878929138 pbc="T T T"
V        0.00000000       0.00000000       0.00000000      -0.05870360       0.05036397      -0.00279831
V       -0.08943000       1.73751000       2.34875000       0.05870360      -0.05036391       0.00279830
2
Lattice="2.926743019 0.080738864 -0.172397724 -1.391360048 2.704267123 0.114975093 -0.274876868 -0.184493198 4.659126923" Properties=species:S:1:pos:R:3:forces:R:3 batch_id=T generation=8 composition=V2 config_type=hcp_aa source_path=V-Cr-Ti-W-Zr/Fixed_Engrads/vcrtiwzr_fin_engrads/job_gen_6-2024-12-23/V/V2_hcp_idx_2663 temperature=T date_processed=2025-01-03T17:40:01.728624 structure_type=T structure_index=2663 adversarial_step=T structure_id=7957 energy=-16.388914108276367 stress="0.18670127632410402 -0.007893630349995432 0.01884880206585524 -0.007893630349995432 0.1719150038916858 0.008561783901921234 0.01884880206585524 0.008561783901921234 0.16912156655032376" calculation_info="_JSON {\"calculation_id\": 7957, \"calculator\": \"vasp\", \"calculation_source_path\": \"\", \"error\": null, \"status\": \"completed\", \"gpu_count\": null, \"parameters\": {}, \"date_started\": null, \"gpu_memory_mb\": null, \"model_version\": null, \"date_completed\": null, \"runtime_seconds\": null}" parent_id=7957 step=1 variance=0.24759984016418457 loss=0.24759984016418457 pbc="T T T"
V        0.01000000      -0.01000000       0.01000000      -0.04164735       0.04302866       0.03828431
V       -0.09943000       1.74751000       2.33875000       0.04164738      -0.04302866      -0.03828430
2
Lattice="2.926743019 0.080738864 -0.172397724 -1.391360048 2.704267123 0.114975093 -0.274876868 -0.184493198 4.659126923" Properties=species:S:1:pos:R:3:forces:R:3 batch_id=T generation=8 composition=V2 config_type=hcp_aa source_path=V-Cr-Ti-W-Zr/Fixed_Engrads/vcrtiwzr_fin_engrads/job_gen_6-2024-12-23/V/V2_hcp_idx_2663 temperature=T date_processed=2025-01-03T17:40:01.728624 structure_type=T structure_index=2663 adversarial_step=T structure_id=7957 energy=-16.388879013061523 stress="0.18670127632410402 -0.007893630349995432 0.01884880206585524 -0.007893630349995432 0.1719150038916858 0.008561783901921234 0.01884880206585524 0.008561783901921234 0.16912156655032376" calculation_info="_JSON {\"calculation_id\": 7957, \"calculator\": \"vasp\", \"calculation_source_path\": \"\", \"error\": null, \"status\": \"completed\", \"gpu_count\": null, \"parameters\": {}, \"date_started\": null, \"gpu_memory_mb\": null, \"model_version\": null, \"date_completed\": null, \"runtime_seconds\": null}" parent_id=7957 step=2 variance=0.23592224717140198 loss=0.23592224717140198 pbc="T T T"
V        0.01065691      -0.01226747       0.01150217      -0.03967253       0.04229235       0.04344077
V       -0.10043277       1.74735575       2.33725414       0.03967253      -0.04229229      -0.04344077
2
Lattice="2.926743019 0.080738864 -0.172397724 -1.391360048 2.704267123 0.114975093 -0.274876868 -0.184493198 4.659126923" Properties=species:S:1:pos:R:3:forces:R:3 batch_id=T generation=8 composition=V2 config_type=hcp_aa source_path=V-Cr-Ti-W-Zr/Fixed_Engrads/vcrtiwzr_fin_engrads/job_gen_6-2024-12-23/V/V2_hcp_idx_2663 temperature=T date_processed=2025-01-03T17:40:01.728624 structure_type=T structure_index=2663 adversarial_step=T structure_id=7957 energy=-16.389171600341797 stress="0.18670127632410402 -0.007893630349995432 0.01884880206585524 -0.007893630349995432 0.1719150038916858 0.008561783901921234 0.01884880206585524 0.008561783901921234 0.16912156655032376" calculation_info="_JSON {\"calculation_id\": 7957, \"calculator\": \"vasp\", \"calculation_source_path\": \"\", \"error\": null, \"status\": \"completed\", \"gpu_count\": null, \"parameters\": {}, \"date_started\": null, \"gpu_memory_mb\": null, \"model_version\": null, \"date_completed\": null, \"runtime_seconds\": null}" parent_id=7957 step=3 variance=0.25795823335647583 loss=0.25795823335647583 pbc="T T T"
V        0.00755670      -0.01115247       0.00934526      -0.04317939       0.04389076       0.03399871
V       -0.09767988       1.74348145       2.33934400       0.04317939      -0.04389074      -0.03399868
2
Lattice="2.926743019 0.080738864 -0.172397724 -1.391360048 2.704267123 0.114975093 -0.274876868 -0.184493198 4.659126923" Properties=species:S:1:pos:R:3:forces:R:3 batch_id=T generation=8 composition=V2 config_type=hcp_aa source_path=V-Cr-Ti-W-Zr/Fixed_Engrads/vcrtiwzr_fin_engrads/job_gen_6-2024-12-23/V/V2_hcp_idx_2663 temperature=T date_processed=2025-01-03T17:40:01.728624 structure_type=T structure_index=2663 adversarial_step=T structure_id=7957 energy=-16.389794158935548 stress="0.18670127632410402 -0.007893630349995432 0.01884880206585524 -0.007893630349995432 0.1719150038916858 0.008561783901921234 0.01884880206585524 0.008561783901921234 0.16912156655032376" calculation_info="_JSON {\"calculation_id\": 7957, \"calculator\": \"vasp\", \"calculation_source_path\": \"\", \"error\": null, \"status\": \"completed\", \"gpu_count\": null, \"parameters\": {}, \"date_started\": null, \"gpu_memory_mb\": null, \"model_version\": null, \"date_completed\": null, \"runtime_seconds\": null}" parent_id=7957 step=4 variance=0.2780650854110718 loss=0.2780650854110718 pbc="T T T"
V        0.00282751      -0.00766703       0.00544406      -0.05003229       0.04696922       0.01716128
V       -0.09318571       1.73830971       2.34328505       0.05003229      -0.04696926      -0.01716127
2
Lattice="2.926743019 0.080738864 -0.172397724 -1.391360048 2.704267123 0.114975093 -0.274876868 -0.184493198 4.659126923" Properties=species:S:1:pos:R:3:forces:R:3 batch_id=T generation=8 composition=V2 config_type=hcp_aa source_path=V-Cr-Ti-W-Zr/Fixed_Engrads/vcrtiwzr_fin_engrads/job_gen_6-2024-12-23/V/V2_hcp_idx_2663 temperature=T date_processed=2025-01-03T17:40:01.728624 structure_type=T structure_index=2663 adversarial_step=T structure_id=7957 energy=-16.390474319458008 stress="0.18670127632410402 -0.007893630349995432 0.01884880206585524 -0.007893630349995432 0.1719150038916858 0.008561783901921234 0.01884880206585524 0.008561783901921234 0.16912156655032376" calculation_info="_JSON {\"calculation_id\": 7957, \"calculator\": \"vasp\", \"calculation_source_path\": \"\", \"error\": null, \"status\": \"completed\", \"gpu_count\": null, \"parameters\": {}, \"date_started\": null, \"gpu_memory_mb\": null, \"model_version\": null, \"date_completed\": null, \"runtime_seconds\": null}" parent_id=7957 step=5 variance=0.25664854049682617 loss=0.25664854049682617 pbc="T T T"
V       -0.00140607      -0.00498295       0.00232711      -0.05621677       0.04967977       0.00308949
V       -0.08935381       1.73442980       2.34644579       0.05621678      -0.04967977      -0.00308953
2
Lattice="2.926743019 0.080738864 -0.172397724 -1.391360048 2.704267123 0.114975093 -0.274876868 -0.184493198 4.659126923" Properties=species:S:1:pos:R:3:forces:R:3 batch_id=T generation=8 composition=V2 config_type=hcp_aa source_path=V-Cr-Ti-W-Zr/Fixed_Engrads/vcrtiwzr_fin_engrads/job_gen_6-2024-12-23/V/V2_hcp_idx_2663 temperature=T date_processed=2025-01-03T17:40:01.728624 structure_type=T structure_index=2663 adversarial_step=T structure_id=7957 energy=-16.390480041503906 stress="0.18670127632410402 -0.007893630349995432 0.01884880206585524 -0.007893630349995432 0.1719150038916858 0.008561783901921234 0.01884880206585524 0.008561783901921234 0.16912156655032376" calculation_info="_JSON {\"calculation_id\": 7957, \"calculator\": \"vasp\", \"calculation_source_path\": \"\", \"error\": null, \"status\": \"completed\", \"gpu_count\": null, \"parameters\": {}, \"date_started\": null, \"gpu_memory_mb\": null, \"model_version\": null, \"date_completed\": null, \"runtime_seconds\": null}" parent_id=7957 step=6 variance=0.257595419883728 loss=0.257595419883728 pbc="T T T"
V       -0.00239838      -0.00631423       0.00265988      -0.05596280       0.04950847       0.00351773
V       -0.08906118       1.73449503       2.34606337       0.05596279      -0.04950841      -0.00351770
2
Lattice="2.926743019 0.080738864 -0.172397724 -1.391360048 2.704267123 0.114975093 -0.274876868 -0.184493198 4.659126923" Properties=species:S:1:pos:R:3:forces:R:3 batch_id=T generation=8 composition=V2 config_type=hcp_aa source_path=V-Cr-Ti-W-Zr/Fixed_Engrads/vcrtiwzr_fin_engrads/job_gen_6-2024-12-23/V/V2_hcp_idx_2663 temperature=T date_processed=2025-01-03T17:40:01.728624 structure_type=T structure_index=2663 adversarial_step=T structure_id=7957 energy=-16.390060806274413 stress="0.18670127632410402 -0.007893630349995432 0.01884880206585524 -0.007893630349995432 0.1719150038916858 0.008561783901921234 0.01884880206585524 0.008561783901921234 0.16912156655032376" calculation_info="_JSON {\"calculation_id\": 7957, \"calculator\": \"vasp\", \"calculation_source_path\": \"\", \"error\": null, \"status\": \"completed\", \"gpu_count\": null, \"parameters\": {}, \"date_started\": null, \"gpu_memory_mb\": null, \"model_version\": null, \"date_completed\": null, \"runtime_seconds\": null}" parent_id=7957 step=7 variance=0.2765864133834839 loss=0.2765864133834839 pbc="T T T"
V       -0.00106861      -0.00993365       0.00517349      -0.05160064       0.04744191       0.01311217
V       -0.09090619       1.73689993       2.34347139       0.05160062      -0.04744188      -0.01311218
2
Lattice="2.926743019 0.080738864 -0.172397724 -1.391360048 2.704267123 0.114975093 -0.274876868 -0.184493198 4.659126923" Properties=species:S:1:pos:R:3:forces:R:3 batch_id=T generation=8 composition=V2 config_type=hcp_aa source_path=V-Cr-Ti-W-Zr/Fixed_Engrads/vcrtiwzr_fin_engrads/job_gen_6-2024-12-23/V/V2_hcp_idx_2663 temperature=T date_processed=2025-01-03T17:40:01.728624 structure_type=T structure_index=2663 adversarial_step=T structure_id=7957 energy=-16.389601516723634 stress="0.18670127632410402 -0.007893630349995432 0.01884880206585524 -0.007893630349995432 0.1719150038916858 0.008561783901921234 0.01884880206585524 0.008561783901921234 0.16912156655032376" calculation_info="_JSON {\"calculation_id\": 7957, \"calculator\": \"vasp\", \"calculation_source_path\": \"\", \"error\": null, \"status\": \"completed\", \"gpu_count\": null, \"parameters\": {}, \"date_started\": null, \"gpu_memory_mb\": null, \"model_version\": null, \"date_completed\": null, \"runtime_seconds\": null}" parent_id=7957 step=8 variance=0.2760714888572693 loss=0.2760714888572693 pbc="T T T"
V        0.00072178      -0.01460269       0.00813223      -0.04657705       0.04474146       0.02448350
V       -0.09307725       1.74040929       2.34041404       0.04657702      -0.04474146      -0.02448355
2
Lattice="2.926743019 0.080738864 -0.172397724 -1.391360048 2.704267123 0.114975093 -0.274876868 -0.184493198 4.659126923" Properties=species:S:1:pos:R:3:forces:R:3 batch_id=T generation=8 composition=V2 config_type=hcp_aa source_path=V-Cr-Ti-W-Zr/Fixed_Engrads/vcrtiwzr_fin_engrads/job_gen_6-2024-12-23/V/V2_hcp_idx_2663 temperature=T date_processed=2025-01-03T17:40:01.728624 structure_type=T structure_index=2663 adversarial_step=T structure_id=7957 energy=-16.38929901123047 stress="0.18670127632410402 -0.007893630349995432 0.01884880206585524 -0.007893630349995432 0.1719150038916858 0.008561783901921234 0.01884880206585524 0.008561783901921234 0.16912156655032376" calculation_info="_JSON {\"calculation_id\": 7957, \"calculator\": \"vasp\", \"calculation_source_path\": \"\", \"error\": null, \"status\": \"completed\", \"gpu_count\": null, \"parameters\": {}, \"date_started\": null, \"gpu_memory_mb\": null, \"model_version\": null, \"date_completed\": null, \"runtime_seconds\": null}" parent_id=7957 step=9 variance=0.2675791382789612 loss=0.2675791382789612 pbc="T T T"
V        0.00131706      -0.01873039       0.00993788      -0.04367596       0.04252015       0.03088959
V       -0.09395191       1.74397565       2.33864294       0.04367597      -0.04252015      -0.03088961
2
Lattice="2.926743019 0.080738864 -0.172397724 -1.391360048 2.704267123 0.114975093 -0.274876868 -0.184493198 4.659126923" Properties=species:S:1:pos:R:3:forces:R:3 batch_id=T generation=8 composition=V2 config_type=hcp_aa source_path=V-Cr-Ti-W-Zr/Fixed_Engrads/vcrtiwzr_fin_engrads/job_gen_6-2024-12-23/V/V2_hcp_idx_2663 temperature=T date_processed=2025-01-03T17:40:01.728624 structure_type=T structure_index=2663 adversarial_step=T structure_id=7957 energy=-16.389114379882812 stress="0.18670127632410402 -0.007893630349995432 0.01884880206585524 -0.007893630349995432 0.1719150038916858 0.008561783901921234 0.01884880206585524 0.008561783901921234 0.16912156655032376" calculation_info="_JSON {\"calculation_id\": 7957, \"calculator\": \"vasp\", \"calculation_source_path\": \"\", \"error\": null, \"status\": \"completed\", \"gpu_count\": null, \"parameters\": {}, \"date_started\": null, \"gpu_memory_mb\": null, \"model_version\": null, \"date_completed\": null, \"runtime_seconds\": null}" parent_id=7957 step=10 variance=0.26922881603240967 loss=0.26922881603240967 pbc="T T T"
V        0.00026722      -0.02267473       0.01011633      -0.04314389       0.04099730       0.03105553
V       -0.09328222       1.74654886       2.33840769       0.04314391      -0.04099729      -0.03105550
2
Lattice="2.926743019 0.080738864 -0.172397724 -1.391360048 2.704267123 0.114975093 -0.274876868 -0.184493198 4.659126923" Properties=species:S:1:pos:R:3:forces:R:3 batch_id=T generation=8 composition=V2 config_type=hcp_aa source_path=V-Cr-Ti-W-Zr/Fixed_Engrads/vcrtiwzr_fin_engrads/job_gen_6-2024-12-23/V/V2_hcp_idx_2663 temperature=T date_processed=2025-01-03T17:40:01.728624 structure_type=T structure_index=2663 adversarial_step=T structure_id=7957 energy=-16.388997650146486 stress="0.18670127632410402 -0.007893630349995432 0.01884880206585524 -0.007893630349995432 0.1719150038916858 0.008561783901921234 0.01884880206585524 0.008561783901921234 0.16912156655032376" calculation_info="_JSON {\"calculation_id\": 7957, \"calculator\": \"vasp\", \"calculation_source_path\": \"\", \"error\": null, \"status\": \"completed\", \"gpu_count\": null, \"parameters\": {}, \"date_started\": null, \"gpu_memory_mb\": null, \"model_version\": null, \"date_completed\": null, \"runtime_seconds\": null}" parent_id=7957 step=11 variance=0.2831575870513916 loss=0.2831575870513916 pbc="T T T"
V       -0.00229792      -0.02679438       0.00887291      -0.04434534       0.03996758       0.02587404
V       -0.09117036       1.74871729       2.33949910       0.04434534      -0.03996754      -0.02587407
2
Lattice="2.926743019 0.080738864 -0.172397724 -1.391360048 2.704267123 0.114975093 -0.274876868 -0.184493198 4.659126923" Properties=species:S:1:pos:R:3:forces:R:3 batch_id=T generation=8 composition=V2 config_type=hcp_aa source_path=V-Cr-Ti-W-Zr/Fixed_Engrads/vcrtiwzr_fin_engrads/job_gen_6-2024-12-23/V/V2_hcp_idx_2663 temperature=T date_processed=2025-01-03T17:40:01.728624 structure_type=T structure_index=2663 adversarial_step=T structure_id=7957 energy=-16.388891220092773 stress="0.18670127632410402 -0.007893630349995432 0.01884880206585524 -0.007893630349995432 0.1719150038916858 0.008561783901921234 0.01884880206585524 0.008561783901921234 0.16912156655032376" calculation_info="_JSON {\"calculation_id\": 7957, \"calculator\": \"vasp\", \"calculation_source_path\": \"\", \"error\": null, \"status\": \"completed\", \"gpu_count\": null, \"parameters\": {}, \"date_started\": null, \"gpu_memory_mb\": null, \"model_version\": null, \"date_completed\": null, \"runtime_seconds\": null}" parent_id=7957 step=12 variance=0.3044556677341461 loss=0.3044556677341461 pbc="T T T"
V       -0.00593123      -0.03196842       0.00672115      -0.04617133       0.03878900       0.01718986
V       -0.08786448       1.75192783       2.34155399       0.04617133      -0.03878897      -0.01718986
2
Lattice="2.926743019 0.080738864 -0.172397724 -1.391360048 2.704267123 0.114975093 -0.274876868 -0.184493198 4.659126923" Properties=species:S:1:pos:R:3:forces:R:3 batch_id=T generation=8 composition=V2 config_type=hcp_aa source_path=V-Cr-Ti-W-Zr/Fixed_Engrads/vcrtiwzr_fin_engrads/job_gen_6-2024-12-23/V/V2_hcp_idx_2663 temperature=T date_processed=2025-01-03T17:40:01.728624 structure_type=T structure_index=2663 adversarial_step=T structure_id=7957 energy=-16.38878059387207 stress="0.18670127632410402 -0.007893630349995432 0.01884880206585524 -0.007893630349995432 0.1719150038916858 0.008561783901921234 0.01884880206585524 0.008561783901921234 0.16912156655032376" calculation_info="_JSON {\"calculation_id\": 7957, \"calculator\": \"vasp\", \"calculation_source_path\": \"\", \"error\": null, \"status\": \"completed\", \"gpu_count\": null, \"parameters\": {}, \"date_started\": null, \"gpu_memory_mb\": null, \"model_version\": null, \"date_completed\": null, \"runtime_seconds\": null}" parent_id=7957 step=13 variance=0.3257791996002197 loss=0.3257791996002197 pbc="T T T"
V       -0.01028889      -0.03864369       0.00448787      -0.04695445       0.03679308       0.00790970
V       -0.08376111       1.75716853       2.34372589       0.04695444      -0.03679308      -0.00790968
2
Lattice="2.926743019 0.080738864 -0.172397724 -1.391360048 2.704267123 0.114975093 -0.274876868 -0.184493198 4.659126923" Properties=species:S:1:pos:R:3:forces:R:3 batch_id=T generation=8 composition=V2 config_type=hcp_aa source_path=V-Cr-Ti-W-Zr/Fixed_Engrads/vcrtiwzr_fin_engrads/job_gen_6-2024-12-23/V/V2_hcp_idx_2663 temperature=T date_processed=2025-01-03T17:40:01.728624 structure_type=T structure_index=2663 adversarial_step=T structure_id=7957 energy=-16.388687133789062 stress="0.18670127632410402 -0.007893630349995432 0.01884880206585524 -0.007893630349995432 0.1719150038916858 0.008561783901921234 0.01884880206585524 0.008561783901921234 0.16912156655032376" calculation_info="_JSON {\"calculation_id\": 7957, \"calculator\": \"vasp\", \"calculation_source_path\": \"\", \"error\": null, \"status\": \"completed\", \"gpu_count\": null, \"parameters\": {}, \"date_started\": null, \"gpu_memory_mb\": null, \"model_version\": null, \"date_completed\": null, \"runtime_seconds\": null}" parent_id=7957 step=14 variance=0.3618045747280121 loss=0.3618045747280121 pbc="T T T"
V       -0.01483015      -0.04611523       0.00394146      -0.04439945       0.03368618       0.00344907
V       -0.07930862       1.76388397       2.34407253       0.04439946      -0.03368624      -0.00344906
2
Lattice="2.926743019 0.080738864 -0.172397724 -1.391360048 2.704267123 0.114975093 -0.274876868 -0.184493198 4.659126923" Properties=species:S:1:pos:R:3:forces:R:3 batch_id=T generation=8 composition=V2 config_type=hcp_aa source_path=V-Cr-Ti-W-Zr/Fixed_Engrads/vcrtiwzr_fin_engrads/job_gen_6-2024-12-23/V/V2_hcp_idx_2663 temperature=T date_processed=2025-01-03T17:40:01.728624 structure_type=T structure_index=2663 adversarial_step=T structure_id=7957 energy=-16.3885986328125 stress="0.18670127632410402 -0.007893630349995432 0.01884880206585524 -0.007893630349995432 0.1719150038916858 0.008561783901921234 0.01884880206585524 0.008561783901921234 0.16912156655032376" calculation_info="_JSON {\"calculation_id\": 7957, \"calculator\": \"vasp\", \"calculation_source_path\": \"\", \"error\": null, \"status\": \"completed\", \"gpu_count\": null, \"parameters\": {}, \"date_started\": null, \"gpu_memory_mb\": null, \"model_version\": null, \"date_completed\": null, \"runtime_seconds\": null}" parent_id=7957 step=15 variance=0.4487578868865967 loss=0.4487578868865967 pbc="T T T"
V       -0.01969749      -0.05423709       0.00589899      -0.03760309       0.02939809       0.00550874
V       -0.07463899       1.77157395       2.34187608       0.03760311      -0.02939813      -0.00550874
2
Lattice="2.926743019 0.080738864 -0.172397724 -1.391360048 2.704267123 0.114975093 -0.274876868 -0.184493198 4.659126923" Properties=species:S:1:pos:R:3:forces:R:3 batch_id=T generation=8 composition=V2 config_type=hcp_aa source_path=V-Cr-Ti-W-Zr/Fixed_Engrads/vcrtiwzr_fin_engrads/job_gen_6-2024-12-23/V/V2_hcp_idx_2663 temperature=T date_processed=2025-01-03T17:40:01.728624 structure_type=T structure_index=2663 adversarial_step=T structure_id=7957 energy=-16.38858985900879 stress="0.18670127632410402 -0.007893630349995432 0.01884880206585524 -0.007893630349995432 0.1719150038916858 0.008561783901921234 0.01884880206585524 0.008561783901921234 0.16912156655032376" calculation_info="_JSON {\"calculation_id\": 7957, \"calculator\": \"vasp\", \"calculation_source_path\": \"\", \"error\": null, \"status\": \"completed\", \"gpu_count\": null, \"parameters\": {}, \"date_started\": null, \"gpu_memory_mb\": null, \"model_version\": null, \"date_completed\": null, \"runtime_seconds\": null}" parent_id=7957 step=16 variance=0.5662181973457336 loss=0.5662181973457336 pbc="T T T"
V       -0.02593951      -0.06301337       0.00948594      -0.02691686       0.02489750       0.01014120
V       -0.06848481       1.78004978       2.33807483       0.02691684      -0.02489749      -0.01014123
2
Lattice="2.926743019 0.080738864 -0.172397724 -1.391360048 2.704267123 0.114975093 -0.274876868 -0.184493198 4.659126923" Properties=species:S:1:pos:R:3:forces:R:3 batch_id=T generation=8 composition=V2 config_type=hcp_aa source_path=V-Cr-Ti-W-Zr/Fixed_Engrads/vcrtiwzr_fin_engrads/job_gen_6-2024-12-23/V/V2_hcp_idx_2663 temperature=T date_processed=2025-01-03T17:40:01.728624 structure_type=T structure_index=2663 adversarial_step=T structure_id=7957 energy=-16.38851661682129 stress="0.18670127632410402 -0.007893630349995432 0.01884880206585524 -0.007893630349995432 0.1719150038916858 0.008561783901921234 0.01884880206585524 0.008561783901921234 0.16912156655032376" calculation_info="_JSON {\"calculation_id\": 7957, \"calculator\": \"vasp\", \"calculation_source_path\": \"\", \"error\": null, \"status\": \"completed\", \"gpu_count\": null, \"parameters\": {}, \"date_started\": null, \"gpu_memory_mb\": null, \"model_version\": null, \"date_completed\": null, \"runtime_seconds\": null}" parent_id=7957 step=17 variance=0.6649982929229736 loss=0.6649982929229736 pbc="T T T"
V       -0.03340306      -0.07225353       0.01110889      -0.01537934       0.02123673       0.00849699
V       -0.06108786       1.78910729       2.33629695       0.01537933      -0.02123670      -0.00849702
2
Lattice="2.926743019 0.080738864 -0.172397724 -1.391360048 2.704267123 0.114975093 -0.274876868 -0.184493198 4.659126923" Properties=species:S:1:pos:R:3:forces:R:3 batch_id=T generation=8 composition=V2 config_type=hcp_aa source_path=V-Cr-Ti-W-Zr/Fixed_Engrads/vcrtiwzr_fin_engrads/job_gen_6-2024-12-23/V/V2_hcp_idx_2663 temperature=T date_processed=2025-01-03T17:40:01.728624 structure_type=T structure_index=2663 adversarial_step=T structure_id=7957 energy=-16.388302993774413 stress="0.18670127632410402 -0.007893630349995432 0.01884880206585524 -0.007893630349995432 0.1719150038916858 0.008561783901921234 0.01884880206585524 0.008561783901921234 0.16912156655032376" calculation_info="_JSON {\"calculation_id\": 7957, \"calculator\": \"vasp\", \"calculation_source_path\": \"\", \"error\": null, \"status\": \"completed\", \"gpu_count\": null, \"parameters\": {}, \"date_started\": null, \"gpu_memory_mb\": null, \"model_version\": null, \"date_completed\": null, \"runtime_seconds\": null}" parent_id=7957 step=18 variance=0.7085176110267639 loss=0.7085176110267639 pbc="T T T"
V       -0.04170316      -0.08141954       0.01018303      -0.00338445       0.01911108       0.00020923
V       -0.05285554       1.79812533       2.33700364       0.00338444      -0.01911111      -0.00020922
2
Lattice="2.926743019 0.080738864 -0.172397724 -1.391360048 2.704267123 0.114975093 -0.274876868 -0.184493198 4.659126923" Properties=species:S:1:pos:R:3:forces:R:3 batch_id=T generation=8 composition=V2 config_type=hcp_aa source_path=V-Cr-Ti-W-Zr/Fixed_Engrads/vcrtiwzr_fin_engrads/job_gen_6-2024-12-23/V/V2_hcp_idx_2663 temperature=T date_processed=2025-01-03T17:40:01.728624 structure_type=T structure_index=2663 adversarial_step=T structure_id=7957 energy=-16.387954330444337 stress="0.18670127632410402 -0.007893630349995432 0.01884880206585524 -0.007893630349995432 0.1719150038916858 0.008561783901921234 0.01884880206585524 0.008561783901921234 0.16912156655032376" calculation_info="_JSON {\"calculation_id\": 7957, \"calculator\": \"vasp\", \"calculation_source_path\": \"\", \"error\": null, \"status\": \"completed\", \"gpu_count\": null, \"parameters\": {}, \"date_started\": null, \"gpu_memory_mb\": null, \"model_version\": null, \"date_completed\": null, \"runtime_seconds\": null}" parent_id=7957 step=19 variance=0.725003182888031 loss=0.725003182888031 pbc="T T T"
V       -0.04695627      -0.09114407       0.00983073       0.00974003       0.01371966      -0.00338161
V       -0.04761194       1.80773467       2.33708923      -0.00974002      -0.01371966       0.00338158
2
Lattice="2.926743019 0.080738864 -0.172397724 -1.391360048 2.704267123 0.114975093 -0.274876868 -0.184493198 4.659126923" Properties=species:S:1:pos:R:3:forces:R:3 batch_id=T generation=8 composition=V2 config_type=hcp_aa source_path=V-Cr-Ti-W-Zr/Fixed_Engrads/vcrtiwzr_fin_engrads/job_gen_6-2024-12-23/V/V2_hcp_idx_2663 temperature=T date_processed=2025-01-03T17:40:01.728624 structure_type=T structure_index=2663 adversarial_step=T structure_id=7957 energy=-16.38779640197754 stress="0.18670127632410402 -0.007893630349995432 0.01884880206585524 -0.007893630349995432 0.1719150038916858 0.008561783901921234 0.01884880206585524 0.008561783901921234 0.16912156655032376" calculation_info="_JSON {\"calculation_id\": 7957, \"calculator\": \"vasp\", \"calculation_source_path\": \"\", \"error\": null, \"status\": \"completed\", \"gpu_count\": null, \"parameters\": {}, \"date_started\": null, \"gpu_memory_mb\": null, \"model_version\": null, \"date_completed\": null, \"runtime_seconds\": null}" parent_id=7957 step=20 variance=0.7846603393554688 loss=0.7846603393554688 pbc="T T T"
V       -0.04701088      -0.10117880       0.00880682       0.01890327       0.00244517      -0.00327503
V       -0.04764374       1.81776900       2.33768948      -0.01890326      -0.00244514       0.00327503
2
Lattice="2.926743019 0.080738864 -0.172397724 -1.391360048 2.704267123 0.114975093 -0.274876868 -0.184493198 4.659126923" Properties=species:S:1:pos:R:3:forces:R:3 batch_id=T generation=8 composition=V2 config_type=hcp_aa source_path=V-Cr-Ti-W-Zr/Fixed_Engrads/vcrtiwzr_fin_engrads/job_gen_6-2024-12-23/V/V2_hcp_idx_2663 temperature=T date_processed=2025-01-03T17:40:01.728624 structure_type=T structure_index=2663 adversarial_step=T structure_id=7957 energy=-16.387979125976564 stress="0.18670127632410402 -0.007893630349995432 0.01884880206585524 -0.007893630349995432 0.1719150038916858 0.008561783901921234 0.01884880206585524 0.008561783901921234 0.16912156655032376" calculation_info="_JSON {\"calculation_id\": 7957, \"calculator\": \"vasp\", \"calculation_source_path\": \"\", \"error\": null, \"status\": \"completed\", \"gpu_count\": null, \"parameters\": {}, \"date_started\": null, \"gpu_memory_mb\": null, \"model_version\": null, \"date_completed\": null, \"runtime_seconds\": null}" parent_id=7957 step=21 variance=0.8568992614746094 loss=0.8568992614746094 pbc="T T T"
V       -0.04416565      -0.10726245       0.00417942       0.01748851      -0.00636525      -0.00926427
V       -0.05041712       1.82351040       2.34209230      -0.01748851       0.00636523       0.00926426
2