2
Lattice="35.751385464 0.0 0.0 0.0 21.450831279 0.0 0.0 0.0 20.25911843" Properties=species:S:1:pos:R:3:forces:R:3 generation=7 config_type=dimer source_path=/home/myless/Calc_VASP/MRS/job_gen_7-2025-04-10/Zr/Zr2_dimer_idx_8 formula_string=Zr2 composition_str=Zr2 structure_index=8 date_added_to_db=2025-04-14T00:24:40.121883 structure_id=23876 energy=-8.169135 stress="-2.8866979707210067e-05 0.0 0.0 0.0 1.2545433343025348e-06 0.0 0.0 0.0 1.2670263525543015e-06" calculation_info="_JSON {\"calculation_id\": 23871, \"calculator\": \"vasp\", \"calculation_source_path\": \"/home/myless/Calc_VASP/MRS/job_gen_7-2025-04-10/Zr/Zr2_dimer_idx_8\", \"nbands\": 16, \"parser\": \"ase_outcar\", \"potcar\": \"PAW_PBE Zr_sv 04Jan2005\", \"kpoints\": [1, 2, 2], \"date_run\": \"2025.03.13  02:48:11\", \"vasp_version\": \"vasp.6.4.2 20Jul23\", \"resources_used\": {\"nodes\": 1, \"mpi_ranks\": 4, \"gpus_detected\": true, \"threads_per_rank\": 8}, \"calculation_type\": \"static\"}" pbc="T T T"
Zr       0.00000000       0.00000000       0.00000000      -0.20939900       0.00000000       0.00000000
Zr       2.26425000       0.00000000       0.00000000       0.20939900       0.00000000       0.00000000
2
Lattice="35.751385464 0.0 0.0 0.0 21.450831279 0.0 0.0 0.0 20.25911843" Properties=species:S:1:pos:R:3:forces:R:3 generation=8 config_type=dimer_aa source_path=/home/myless/Calc_VASP/MRS/job_gen_7-2025-04-10/Zr/Zr2_dimer_idx_8 formula_string=Zr2 composition_str=Zr2 structure_index=8 date_added_to_db=2025-04-14T00:24:40.121883 structure_id=23876 energy=-8.225841331481934 stress="-2.8866979707210067e-05 0.0 0.0 0.0 1.2545433343025348e-06 0.0 0.0 0.0 1.2670263525543015e-06" calculation_info="_JSON {\"calculation_id\": 23871, \"calculator\": \"vasp\", \"calculation_source_path\": \"/home/myless/Calc_VASP/MRS/job_gen_7-2025-04-10/Zr/Zr2_dimer_idx_8\", \"nbands\": 16, \"parser\": \"ase_outcar\", \"potcar\": \"PAW_PBE Zr_sv 04Jan2005\", \"kpoints\": [1, 2, 2], \"date_run\": \"2025.03.13  02:48:11\", \"vasp_version\": \"vasp.6.4.2 20Jul23\", \"resources_used\": {\"nodes\": 1, \"mpi_ranks\": 4, \"gpus_detected\": true, \"threads_per_rank\": 8}, \"calculation_type\": \"static\"}" parent_id=23876 step=0 variance=0.9600000381469727 loss=0.9600000381469727 pbc="T T T"
Zr       0.00000000       0.00000000       0.00000000       0.05195210       0.00000000       0.00000000
Zr       2.26425000       0.00000000       0.00000000      -0.05195210       0.00000000       0.00000000
2
Lattice="35.751385464 0.0 0.0 0.0 21.450831279 0.0 0.0 0.0 20.25911843" Properties=species:S:1:pos:R:3:forces:R:3 generation=8 config_type=dimer_aa source_path=/home/myless/Calc_VASP/MRS/job_gen_7-2025-04-10/Zr/Zr2_dimer_idx_8 formula_string=Zr2 composition_str=Zr2 structure_index=8 date_added_to_db=2025-04-14T00:24:40.121883 structure_id=23876 energy=-8.225841331481934 stress="-2.8866979707210067e-05 0.0 0.0 0.0 1.2545433343025348e-06 0.0 0.0 0.0 1.2670263525543015e-06" calculation_info="_JSON {\"calculation_id\": 23871, \"calculator\": \"vasp\", \"calculation_source_path\": \"/home/myless/Calc_VASP/MRS/job_gen_7-2025-04-10/Zr/Zr2_dimer_idx_8\", \"nbands\": 16, \"parser\": \"ase_outcar\", \"potcar\": \"PAW_PBE Zr_sv 04Jan2005\", \"kpoints\": [1, 2, 2], \"date_run\": \"2025.03.13  02:48:11\", \"vasp_version\": \"vasp.6.4.2 20Jul23\", \"resources_used\": {\"nodes\": 1, \"mpi_ranks\": 4, \"gpus_detected\": true, \"threads_per_rank\": 8}, \"calculation_type\": \"static\"}" parent_id=23876 step=1 variance=0.9600000381469727 loss=0.9600000381469727 pbc="T T T"
Zr       0.00000000       0.00000000       0.00000000       0.05195210       0.00000000       0.00000000
Zr       2.26425000       0.00000000       0.00000000      -0.05195210       0.00000000       0.00000000
2
Lattice="35.751385464 0.0 0.0 0.0 21.450831279 0.0 0.0 0.0 20.25911843" Properties=species:S:1:pos:R:3:forces:R:3 generation=8 config_type=dimer_aa source_path=/home/myless/Calc_VASP/MRS/job_gen_7-2025-04-10/Zr/Zr2_dimer_idx_8 formula_string=Zr2 composition_str=Zr2 structure_index=8 date_added_to_db=2025-04-14T00:24:40.121883 structure_id=23876 energy=-8.225841331481934 stress="-2.8866979707210067e-05 0.0 0.0 0.0 1.2545433343025348e-06 0.0 0.0 0.0 1.2670263525543015e-06" calculation_info="_JSON {\"calculation_id\": 23871, \"calculator\": \"vasp\", \"calculation_source_path\": \"/home/myless/Calc_VASP/MRS/job_gen_7-2025-04-10/Zr/Zr2_dimer_idx_8\", \"nbands\": 16, \"parser\": \"ase_outcar\", \"potcar\": \"PAW_PBE Zr_sv 04Jan2005\", \"kpoints\": [1, 2, 2], \"date_run\": \"2025.03.13  02:48:11\", \"vasp_version\": \"vasp.6.4.2 20Jul23\", \"resources_used\": {\"nodes\": 1, \"mpi_ranks\": 4, \"gpus_detected\": true, \"threads_per_rank\": 8}, \"calculation_type\": \"static\"}" parent_id=23876 step=2 variance=0.9600000381469727 loss=0.9600000381469727 pbc="T T T"
Zr       0.00000000       0.00000000       0.00000000       0.05195210       0.00000000       0.00000000
Zr       2.26425000       0.00000000       0.00000000      -0.05195210       0.00000000       0.00000000
2
Lattice="35.751385464 0.0 0.0 0.0 21.450831279 0.0 0.0 0.0 20.25911843" Properties=species:S:1:pos:R:3:forces:R:3 generation=8 config_type=dimer_aa source_path=/home/myless/Calc_VASP/MRS/job_gen_7-2025-04-10/Zr/Zr2_dimer_idx_8 formula_string=Zr2 composition_str=Zr2 structure_index=8 date_added_to_db=2025-04-14T00:24:40.121883 structure_id=23876 energy=-8.225841331481934 stress="-2.8866979707210067e-05 0.0 0.0 0.0 1.2545433343025348e-06 0.0 0.0 0.0 1.2670263525543015e-06" calculation_info="_JSON {\"calculation_id\": 23871, \"calculator\": \"vasp\", \"calculation_source_path\": \"/home/myless/Calc_VASP/MRS/job_gen_7-2025-04-10/Zr/Zr2_dimer_idx_8\", \"nbands\": 16, \"parser\": \"ase_outcar\", \"potcar\": \"PAW_PBE Zr_sv 04Jan2005\", \"kpoints\": [1, 2, 2], \"date_run\": \"2025.03.13  02:48:11\", \"vasp_version\": \"vasp.6.4.2 20Jul23\", \"resources_used\": {\"nodes\": 1, \"mpi_ranks\": 4, \"gpus_detected\": true, \"threads_per_rank\": 8}, \"calculation_type\": \"static\"}" parent_id=23876 step=3 variance=0.9600000381469727 loss=0.9600000381469727 pbc="T T T"
Zr       0.00000000       0.00000000       0.00000000       0.05195210       0.00000000       0.00000000
Zr       2.26425000       0.00000000       0.00000000      -0.05195210       0.00000000       0.00000000
2
Lattice="35.751385464 0.0 0.0 0.0 21.450831279 0.0 0.0 0.0 20.25911843" Properties=species:S:1:pos:R:3:forces:R:3 generation=8 config_type=dimer_aa source_path=/home/myless/Calc_VASP/MRS/job_gen_7-2025-04-10/Zr/Zr2_dimer_idx_8 formula_string=Zr2 composition_str=Zr2 structure_index=8 date_added_to_db=2025-04-14T00:24:40.121883 structure_id=23876 energy=-8.225841331481934 stress="-2.8866979707210067e-05 0.0 0.0 0.0 1.2545433343025348e-06 0.0 0.0 0.0 1.2670263525543015e-06" calculation_info="_JSON {\"calculation_id\": 23871, \"calculator\": \"vasp\", \"calculation_source_path\": \"/home/myless/Calc_VASP/MRS/job_gen_7-2025-04-10/Zr/Zr2_dimer_idx_8\", \"nbands\": 16, \"parser\": \"ase_outcar\", \"potcar\": \"PAW_PBE Zr_sv 04Jan2005\", \"kpoints\": [1, 2, 2], \"date_run\": \"2025.03.13  02:48:11\", \"vasp_version\": \"vasp.6.4.2 20Jul23\", \"resources_used\": {\"nodes\": 1, \"mpi_ranks\": 4, \"gpus_detected\": true, \"threads_per_rank\": 8}, \"calculation_type\": \"static\"}" parent_id=23876 step=4 variance=0.9600000381469727 loss=0.9600000381469727 pbc="T T T"
Zr       0.00000000       0.00000000       0.00000000       0.05195210       0.00000000       0.00000000
Zr       2.26425000       0.00000000       0.00000000      -0.05195210       0.00000000       0.00000000
2
Lattice="35.751385464 0.0 0.0 0.0 21.450831279 0.0 0.0 0.0 20.25911843" Properties=species:S:1:pos:R:3:forces:R:3 generation=8 config_type=dimer_aa source_path=/home/myless/Calc_VASP/MRS/job_gen_7-2025-04-10/Zr/Zr2_dimer_idx_8 formula_string=Zr2 composition_str=Zr2 structure_index=8 date_added_to_db=2025-04-14T00:24:40.121883 structure_id=23876 energy=-8.225841331481934 stress="-2.8866979707210067e-05 0.0 0.0 0.0 1.2545433343025348e-06 0.0 0.0 0.0 1.2670263525543015e-06" calculation_info="_JSON {\"calculation_id\": 23871, \"calculator\": \"vasp\", \"calculation_source_path\": \"/home/myless/Calc_VASP/MRS/job_gen_7-2025-04-10/Zr/Zr2_dimer_idx_8\", \"nbands\": 16, \"parser\": \"ase_outcar\", \"potcar\": \"PAW_PBE Zr_sv 04Jan2005\", \"kpoints\": [1, 2, 2], \"date_run\": \"2025.03.13  02:48:11\", \"vasp_version\": \"vasp.6.4.2 20Jul23\", \"resources_used\": {\"nodes\": 1, \"mpi_ranks\": 4, \"gpus_detected\": true, \"threads_per_rank\": 8}, \"calculation_type\": \"static\"}" parent_id=23876 step=5 variance=0.9600000381469727 loss=0.9600000381469727 pbc="T T T"
Zr       0.00000000       0.00000000       0.00000000       0.05195210       0.00000000       0.00000000
Zr       2.26425000       0.00000000       0.00000000      -0.05195210       0.00000000       0.00000000
2
Lattice="35.751385464 0.0 0.0 0.0 21.450831279 0.0 0.0 0.0 20.25911843" Properties=species:S:1:pos:R:3:forces:R:3 generation=8 config_type=dimer_aa source_path=/home/myless/Calc_VASP/MRS/job_gen_7-2025-04-10/Zr/Zr2_dimer_idx_8 formula_string=Zr2 composition_str=Zr2 structure_index=8 date_added_to_db=2025-04-14T00:24:40.121883 structure_id=23876 energy=-8.225841331481934 stress="-2.8866979707210067e-05 0.0 0.0 0.0 1.2545433343025348e-06 0.0 0.0 0.0 1.2670263525543015e-06" calculation_info="_JSON {\"calculation_id\": 23871, \"calculator\": \"vasp\", \"calculation_source_path\": \"/home/myless/Calc_VASP/MRS/job_gen_7-2025-04-10/Zr/Zr2_dimer_idx_8\", \"nbands\": 16, \"parser\": \"ase_outcar\", \"potcar\": \"PAW_PBE Zr_sv 04Jan2005\", \"kpoints\": [1, 2, 2], \"date_run\": \"2025.03.13  02:48:11\", \"vasp_version\": \"vasp.6.4.2 20Jul23\", \"resources_used\": {\"nodes\": 1, \"mpi_ranks\": 4, \"gpus_detected\": true, \"threads_per_rank\": 8}, \"calculation_type\": \"static\"}" parent_id=23876 step=6 variance=0.9600000381469727 loss=0.9600000381469727 pbc="T T T"
Zr       0.00000000       0.00000000       0.00000000       0.05195210       0.00000000       0.00000000
Zr       2.26425000       0.00000000       0.00000000      -0.05195210       0.00000000       0.00000000
2
Lattice="35.751385464 0.0 0.0 0.0 21.450831279 0.0 0.0 0.0 20.25911843" Properties=species:S:1:pos:R:3:forces:R:3 generation=8 config_type=dimer_aa source_path=/home/myless/Calc_VASP/MRS/job_gen_7-2025-04-10/Zr/Zr2_dimer_idx_8 formula_string=Zr2 composition_str=Zr2 structure_index=8 date_added_to_db=2025-04-14T00:24:40.121883 structure_id=23876 energy=-8.225841331481934 stress="-2.8866979707210067e-05 0.0 0.0 0.0 1.2545433343025348e-06 0.0 0.0 0.0 1.2670263525543015e-06" calculation_info="_JSON {\"calculation_id\": 23871, \"calculator\": \"vasp\", \"calculation_source_path\": \"/home/myless/Calc_VASP/MRS/job_gen_7-2025-04-10/Zr/Zr2_dimer_idx_8\", \"nbands\": 16, \"parser\": \"ase_outcar\", \"potcar\": \"PAW_PBE Zr_sv 04Jan2005\", \"kpoints\": [1, 2, 2], \"date_run\": \"2025.03.13  02:48:11\", \"vasp_version\": \"vasp.6.4.2 20Jul23\", \"resources_used\": {\"nodes\": 1, \"mpi_ranks\": 4, \"gpus_detected\": true, \"threads_per_rank\": 8}, \"calculation_type\": \"static\"}" parent_id=23876 step=7 variance=0.9600000381469727 loss=0.9600000381469727 pbc="T T T"
Zr       0.00000000       0.00000000       0.00000000       0.05195210       0.00000000       0.00000000
Zr       2.26425000       0.00000000       0.00000000      -0.05195210       0.00000000       0.00000000
2
Lattice="35.751385464 0.0 0.0 0.0 21.450831279 0.0 0.0 0.0 20.25911843" Properties=species:S:1:pos:R:3:forces:R:3 generation=8 config_type=dimer_aa source_path=/home/myless/Calc_VASP/MRS/job_gen_7-2025-04-10/Zr/Zr2_dimer_idx_8 formula_string=Zr2 composition_str=Zr2 structure_index=8 date_added_to_db=2025-04-14T00:24:40.121883 structure_id=23876 energy=-8.225841331481934 stress="-2.8866979707210067e-05 0.0 0.0 0.0 1.2545433343025348e-06 0.0 0.0 0.0 1.2670263525543015e-06" calculation_info="_JSON {\"calculation_id\": 23871, \"calculator\": \"vasp\", \"calculation_source_path\": \"/home/myless/Calc_VASP/MRS/job_gen_7-2025-04-10/Zr/Zr2_dimer_idx_8\", \"nbands\": 16, \"parser\": \"ase_outcar\", \"potcar\": \"PAW_PBE Zr_sv 04Jan2005\", \"kpoints\": [1, 2, 2], \"date_run\": \"2025.03.13  02:48:11\", \"vasp_version\": \"vasp.6.4.2 20Jul23\", \"resources_used\": {\"nodes\": 1, \"mpi_ranks\": 4, \"gpus_detected\": true, \"threads_per_rank\": 8}, \"calculation_type\": \"static\"}" parent_id=23876 step=8 variance=0.9600000381469727 loss=0.9600000381469727 pbc="T T T"
Zr       0.00000000       0.00000000       0.00000000       0.05195210       0.00000000       0.00000000
Zr       2.26425000       0.00000000       0.00000000      -0.05195210       0.00000000       0.00000000
2
Lattice="35.751385464 0.0 0.0 0.0 21.450831279 0.0 0.0 0.0 20.25911843" Properties=species:S:1:pos:R:3:forces:R:3 generation=8 config_type=dimer_aa source_path=/home/myless/Calc_VASP/MRS/job_gen_7-2025-04-10/Zr/Zr2_dimer_idx_8 formula_string=Zr2 composition_str=Zr2 structure_index=8 date_added_to_db=2025-04-14T00:24:40.121883 structure_id=23876 energy=-8.225841331481934 stress="-2.8866979707210067e-05 0.0 0.0 0.0 1.2545433343025348e-06 0.0 0.0 0.0 1.2670263525543015e-06" calculation_info="_JSON {\"calculation_id\": 23871, \"calculator\": \"vasp\", \"calculation_source_path\": \"/home/myless/Calc_VASP/MRS/job_gen_7-2025-04-10/Zr/Zr2_dimer_idx_8\", \"nbands\": 16, \"parser\": \"ase_outcar\", \"potcar\": \"PAW_PBE Zr_sv 04Jan2005\", \"kpoints\": [1, 2, 2], \"date_run\": \"2025.03.13  02:48:11\", \"vasp_version\": \"vasp.6.4.2 20Jul23\", \"resources_used\": {\"nodes\": 1, \"mpi_ranks\": 4, \"gpus_detected\": true, \"threads_per_rank\": 8}, \"calculation_type\": \"static\"}" parent_id=23876 step=9 variance=0.9600000381469727 loss=0.9600000381469727 pbc="T T T"
Zr       0.00000000       0.00000000       0.00000000       0.05195210       0.00000000       0.00000000
Zr       2.26425000       0.00000000       0.00000000      -0.05195210       0.00000000       0.00000000
2
Lattice="35.751385464 0.0 0.0 0.0 21.450831279 0.0 0.0 0.0 20.25911843" Properties=species:S:1:pos:R:3:forces:R:3 generation=8 config_type=dimer_aa source_path=/home/myless/Calc_VASP/MRS/job_gen_7-2025-04-10/Zr/Zr2_dimer_idx_8 formula_string=Zr2 composition_str=Zr2 structure_index=8 date_added_to_db=2025-04-14T00:24:40.121883 structure_id=23876 energy=-8.225841331481934 stress="-2.8866979707210067e-05 0.0 0.0 0.0 1.2545433343025348e-06 0.0 0.0 0.0 1.2670263525543015e-06" calculation_info="_JSON {\"calculation_id\": 23871, \"calculator\": \"vasp\", \"calculation_source_path\": \"/home/myless/Calc_VASP/MRS/job_gen_7-2025-04-10/Zr/Zr2_dimer_idx_8\", \"nbands\": 16, \"parser\": \"ase_outcar\", \"potcar\": \"PAW_PBE Zr_sv 04Jan2005\", \"kpoints\": [1, 2, 2], \"date_run\": \"2025.03.13  02:48:11\", \"vasp_version\": \"vasp.6.4.2 20Jul23\", \"resources_used\": {\"nodes\": 1, \"mpi_ranks\": 4, \"gpus_detected\": true, \"threads_per_rank\": 8}, \"calculation_type\": \"static\"}" parent_id=23876 step=10 variance=0.9600000381469727 loss=0.9600000381469727 pbc="T T T"
Zr       0.00000000       0.00000000       0.00000000       0.05195210       0.00000000       0.00000000
Zr       2.26425000       0.00000000       0.00000000      -0.05195210       0.00000000       0.00000000
2
Lattice="35.751385464 0.0 0.0 0.0 21.450831279 0.0 0.0 0.0 20.25911843" Properties=species:S:1:pos:R:3:forces:R:3 generation=8 config_type=dimer_aa source_path=/home/myless/Calc_VASP/MRS/job_gen_7-2025-04-10/Zr/Zr2_dimer_idx_8 formula_string=Zr2 composition_str=Zr2 structure_index=8 date_added_to_db=2025-04-14T00:24:40.121883 structure_id=23876 energy=-8.225841331481934 stress="-2.8866979707210067e-05 0.0 0.0 0.0 1.2545433343025348e-06 0.0 0.0 0.0 1.2670263525543015e-06" calculation_info="_JSON {\"calculation_id\": 23871, \"calculator\": \"vasp\", \"calculation_source_path\": \"/home/myless/Calc_VASP/MRS/job_gen_7-2025-04-10/Zr/Zr2_dimer_idx_8\", \"nbands\": 16, \"parser\": \"ase_outcar\", \"potcar\": \"PAW_PBE Zr_sv 04Jan2005\", \"kpoints\": [1, 2, 2], \"date_run\": \"2025.03.13  02:48:11\", \"vasp_version\": \"vasp.6.4.2 20Jul23\", \"resources_used\": {\"nodes\": 1, \"mpi_ranks\": 4, \"gpus_detected\": true, \"threads_per_rank\": 8}, \"calculation_type\": \"static\"}" parent_id=23876 step=11 variance=0.9600000381469727 loss=0.9600000381469727 pbc="T T T"
Zr       0.00000000       0.00000000       0.00000000       0.05195210       0.00000000       0.00000000
Zr       2.26425000       0.00000000       0.00000000      -0.05195210       0.00000000       0.00000000
2
Lattice="35.751385464 0.0 0.0 0.0 21.450831279 0.0 0.0 0.0 20.25911843" Properties=species:S:1:pos:R:3:forces:R:3 generation=8 config_type=dimer_aa source_path=/home/myless/Calc_VASP/MRS/job_gen_7-2025-04-10/Zr/Zr2_dimer_idx_8 formula_string=Zr2 composition_str=Zr2 structure_index=8 date_added_to_db=2025-04-14T00:24:40.121883 structure_id=23876 energy=-8.225841331481934 stress="-2.8866979707210067e-05 0.0 0.0 0.0 1.2545433343025348e-06 0.0 0.0 0.0 1.2670263525543015e-06" calculation_info="_JSON {\"calculation_id\": 23871, \"calculator\": \"vasp\", \"calculation_source_path\": \"/home/myless/Calc_VASP/MRS/job_gen_7-2025-04-10/Zr/Zr2_dimer_idx_8\", \"nbands\": 16, \"parser\": \"ase_outcar\", \"potcar\": \"PAW_PBE Zr_sv 04Jan2005\", \"kpoints\": [1, 2, 2], \"date_run\": \"2025.03.13  02:48:11\", \"vasp_version\": \"vasp.6.4.2 20Jul23\", \"resources_used\": {\"nodes\": 1, \"mpi_ranks\": 4, \"gpus_detected\": true, \"threads_per_rank\": 8}, \"calculation_type\": \"static\"}" parent_id=23876 step=12 variance=0.9600000381469727 loss=0.9600000381469727 pbc="T T T"
Zr       0.00000000       0.00000000       0.00000000       0.05195210       0.00000000       0.00000000
Zr       2.26425000       0.00000000       0.00000000      -0.05195210       0.00000000       0.00000000
2
Lattice="35.751385464 0.0 0.0 0.0 21.450831279 0.0 0.0 0.0 20.25911843" Properties=species:S:1:pos:R:3:forces:R:3 generation=8 config_type=dimer_aa source_path=/home/myless/Calc_VASP/MRS/job_gen_7-2025-04-10/Zr/Zr2_dimer_idx_8 formula_string=Zr2 composition_str=Zr2 structure_index=8 date_added_to_db=2025-04-14T00:24:40.121883 structure_id=23876 energy=-8.225841331481934 stress="-2.8866979707210067e-05 0.0 0.0 0.0 1.2545433343025348e-06 0.0 0.0 0.0 1.2670263525543015e-06" calculation_info="_JSON {\"calculation_id\": 23871, \"calculator\": \"vasp\", \"calculation_source_path\": \"/home/myless/Calc_VASP/MRS/job_gen_7-2025-04-10/Zr/Zr2_dimer_idx_8\", \"nbands\": 16, \"parser\": \"ase_outcar\", \"potcar\": \"PAW_PBE Zr_sv 04Jan2005\", \"kpoints\": [1, 2, 2], \"date_run\": \"2025.03.13  02:48:11\", \"vasp_version\": \"vasp.6.4.2 20Jul23\", \"resources_used\": {\"nodes\": 1, \"mpi_ranks\": 4, \"gpus_detected\": true, \"threads_per_rank\": 8}, \"calculation_type\": \"static\"}" parent_id=23876 step=13 variance=0.9600000381469727 loss=0.9600000381469727 pbc="T T T"
Zr       0.00000000       0.00000000       0.00000000       0.05195210       0.00000000       0.00000000
Zr       2.26425000       0.00000000       0.00000000      -0.05195210       0.00000000       0.00000000
2
Lattice="35.751385464 0.0 0.0 0.0 21.450831279 0.0 0.0 0.0 20.25911843" Properties=species:S:1:pos:R:3:forces:R:3 generation=8 config_type=dimer_aa source_path=/home/myless/Calc_VASP/MRS/job_gen_7-2025-04-10/Zr/Zr2_dimer_idx_8 formula_string=Zr2 composition_str=Zr2 structure_index=8 date_added_to_db=2025-04-14T00:24:40.121883 structure_id=23876 energy=-8.225841331481934 stress="-2.8866979707210067e-05 0.0 0.0 0.0 1.2545433343025348e-06 0.0 0.0 0.0 1.2670263525543015e-06" calculation_info="_JSON {\"calculation_id\": 23871, \"calculator\": \"vasp\", \"calculation_source_path\": \"/home/myless/Calc_VASP/MRS/job_gen_7-2025-04-10/Zr/Zr2_dimer_idx_8\", \"nbands\": 16, \"parser\": \"ase_outcar\", \"potcar\": \"PAW_PBE Zr_sv 04Jan2005\", \"kpoints\": [1, 2, 2], \"date_run\": \"2025.03.13  02:48:11\", \"vasp_version\": \"vasp.6.4.2 20Jul23\", \"resources_used\": {\"nodes\": 1, \"mpi_ranks\": 4, \"gpus_detected\": true, \"threads_per_rank\": 8}, \"calculation_type\": \"static\"}" parent_id=23876 step=14 variance=0.9600000381469727 loss=0.9600000381469727 pbc="T T T"
Zr       0.00000000       0.00000000       0.00000000       0.05195210       0.00000000       0.00000000
Zr       2.26425000       0.00000000       0.00000000      -0.05195210       0.00000000       0.00000000
2
Lattice="35.751385464 0.0 0.0 0.0 21.450831279 0.0 0.0 0.0 20.25911843" Properties=species:S:1:pos:R:3:forces:R:3 generation=8 config_type=dimer_aa source_path=/home/myless/Calc_VASP/MRS/job_gen_7-2025-04-10/Zr/Zr2_dimer_idx_8 formula_string=Zr2 composition_str=Zr2 structure_index=8 date_added_to_db=2025-04-14T00:24:40.121883 structure_id=23876 energy=-8.225841331481934 stress="-2.8866979707210067e-05 0.0 0.0 0.0 1.2545433343025348e-06 0.0 0.0 0.0 1.2670263525543015e-06" calculation_info="_JSON {\"calculation_id\": 23871, \"calculator\": \"vasp\", \"calculation_source_path\": \"/home/myless/Calc_VASP/MRS/job_gen_7-2025-04-10/Zr/Zr2_dimer_idx_8\", \"nbands\": 16, \"parser\": \"ase_outcar\", \"potcar\": \"PAW_PBE Zr_sv 04Jan2005\", \"kpoints\": [1, 2, 2], \"date_run\": \"2025.03.13  02:48:11\", \"vasp_version\": \"vasp.6.4.2 20Jul23\", \"resources_used\": {\"nodes\": 1, \"mpi_ranks\": 4, \"gpus_detected\": true, \"threads_per_rank\": 8}, \"calculation_type\": \"static\"}" parent_id=23876 step=15 variance=0.9600000381469727 loss=0.9600000381469727 pbc="T T T"
Zr       0.00000000       0.00000000       0.00000000       0.05195210       0.00000000       0.00000000
Zr       2.26425000       0.00000000       0.00000000      -0.05195210       0.00000000       0.00000000
2
Lattice="35.751385464 0.0 0.0 0.0 21.450831279 0.0 0.0 0.0 20.25911843" Properties=species:S:1:pos:R:3:forces:R:3 generation=8 config_type=dimer_aa source_path=/home/myless/Calc_VASP/MRS/job_gen_7-2025-04-10/Zr/Zr2_dimer_idx_8 formula_string=Zr2 composition_str=Zr2 structure_index=8 date_added_to_db=2025-04-14T00:24:40.121883 structure_id=23876 energy=-8.225841331481934 stress="-2.8866979707210067e-05 0.0 0.0 0.0 1.2545433343025348e-06 0.0 0.0 0.0 1.2670263525543015e-06" calculation_info="_JSON {\"calculation_id\": 23871, \"calculator\": \"vasp\", \"calculation_source_path\": \"/home/myless/Calc_VASP/MRS/job_gen_7-2025-04-10/Zr/Zr2_dimer_idx_8\", \"nbands\": 16, \"parser\": \"ase_outcar\", \"potcar\": \"PAW_PBE Zr_sv 04Jan2005\", \"kpoints\": [1, 2, 2], \"date_run\": \"2025.03.13  02:48:11\", \"vasp_version\": \"vasp.6.4.2 20Jul23\", \"resources_used\": {\"nodes\": 1, \"mpi_ranks\": 4, \"gpus_detected\": true, \"threads_per_rank\": 8}, \"calculation_type\": \"static\"}" parent_id=23876 step=16 variance=0.9600000381469727 loss=0.9600000381469727 pbc="T T T"
Zr       0.00000000       0.00000000       0.00000000       0.05195210       0.00000000       0.00000000
Zr       2.26425000       0.00000000       0.00000000      -0.05195210       0.00000000       0.00000000
2
Lattice="35.751385464 0.0 0.0 0.0 21.450831279 0.0 0.0 0.0 20.25911843" Properties=species:S:1:pos:R:3:forces:R:3 generation=8 config_type=dimer_aa source_path=/home/myless/Calc_VASP/MRS/job_gen_7-2025-04-10/Zr/Zr2_dimer_idx_8 formula_string=Zr2 composition_str=Zr2 structure_index=8 date_added_to_db=2025-04-14T00:24:40.121883 structure_id=23876 energy=-8.225841331481934 stress="-2.8866979707210067e-05 0.0 0.0 0.0 1.2545433343025348e-06 0.0 0.0 0.0 1.2670263525543015e-06" calculation_info="_JSON {\"calculation_id\": 23871, \"calculator\": \"vasp\", \"calculation_source_path\": \"/home/myless/Calc_VASP/MRS/job_gen_7-2025-04-10/Zr/Zr2_dimer_idx_8\", \"nbands\": 16, \"parser\": \"ase_outcar\", \"potcar\": \"PAW_PBE Zr_sv 04Jan2005\", \"kpoints\": [1, 2, 2], \"date_run\": \"2025.03.13  02:48:11\", \"vasp_version\": \"vasp.6.4.2 20Jul23\", \"resources_used\": {\"nodes\": 1, \"mpi_ranks\": 4, \"gpus_detected\": true, \"threads_per_rank\": 8}, \"calculation_type\": \"static\"}" parent_id=23876 step=17 variance=0.9600000381469727 loss=0.9600000381469727 pbc="T T T"
Zr       0.00000000       0.00000000       0.00000000       0.05195210       0.00000000       0.00000000
Zr       2.26425000       0.00000000       0.00000000      -0.05195210       0.00000000       0.00000000
2
Lattice="35.751385464 0.0 0.0 0.0 21.450831279 0.0 0.0 0.0 20.25911843" Properties=species:S:1:pos:R:3:forces:R:3 generation=8 config_type=dimer_aa source_path=/home/myless/Calc_VASP/MRS/job_gen_7-2025-04-10/Zr/Zr2_dimer_idx_8 formula_string=Zr2 composition_str=Zr2 structure_index=8 date_added_to_db=2025-04-14T00:24:40.121883 structure_id=23876 energy=-8.225841331481934 stress="-2.8866979707210067e-05 0.0 0.0 0.0 1.2545433343025348e-06 0.0 0.0 0.0 1.2670263525543015e-06" calculation_info="_JSON {\"calculation_id\": 23871, \"calculator\": \"vasp\", \"calculation_source_path\": \"/home/myless/Calc_VASP/MRS/job_gen_7-2025-04-10/Zr/Zr2_dimer_idx_8\", \"nbands\": 16, \"parser\": \"ase_outcar\", \"potcar\": \"PAW_PBE Zr_sv 04Jan2005\", \"kpoints\": [1, 2, 2], \"date_run\": \"2025.03.13  02:48:11\", \"vasp_version\": \"vasp.6.4.2 20Jul23\", \"resources_used\": {\"nodes\": 1, \"mpi_ranks\": 4, \"gpus_detected\": true, \"threads_per_rank\": 8}, \"calculation_type\": \"static\"}" parent_id=23876 step=18 variance=0.9600000381469727 loss=0.9600000381469727 pbc="T T T"
Zr       0.00000000       0.00000000       0.00000000       0.05195210       0.00000000       0.00000000
Zr       2.26425000       0.00000000       0.00000000      -0.05195210       0.00000000       0.00000000
2
Lattice="35.751385464 0.0 0.0 0.0 21.450831279 0.0 0.0 0.0 20.25911843" Properties=species:S:1:pos:R:3:forces:R:3 generation=8 config_type=dimer_aa source_path=/home/myless/Calc_VASP/MRS/job_gen_7-2025-04-10/Zr/Zr2_dimer_idx_8 formula_string=Zr2 composition_str=Zr2 structure_index=8 date_added_to_db=2025-04-14T00:24:40.121883 structure_id=23876 energy=-8.225841331481934 stress="-2.8866979707210067e-05 0.0 0.0 0.0 1.2545433343025348e-06 0.0 0.0 0.0 1.2670263525543015e-06" calculation_info="_JSON {\"calculation_id\": 23871, \"calculator\": \"vasp\", \"calculation_source_path\": \"/home/myless/Calc_VASP/MRS/job_gen_7-2025-04-10/Zr/Zr2_dimer_idx_8\", \"nbands\": 16, \"parser\": \"ase_outcar\", \"potcar\": \"PAW_PBE Zr_sv 04Jan2005\", \"kpoints\": [1, 2, 2], \"date_run\": \"2025.03.13  02:48:11\", \"vasp_version\": \"vasp.6.4.2 20Jul23\", \"resources_used\": {\"nodes\": 1, \"mpi_ranks\": 4, \"gpus_detected\": true, \"threads_per_rank\": 8}, \"calculation_type\": \"static\"}" parent_id=23876 step=19 variance=0.9600000381469727 loss=0.9600000381469727 pbc="T T T"
Zr       0.00000000       0.00000000       0.00000000       0.05195210       0.00000000       0.00000000
Zr       2.26425000       0.00000000       0.00000000      -0.05195210       0.00000000       0.00000000
2
Lattice="35.751385464 0.0 0.0 0.0 21.450831279 0.0 0.0 0.0 20.25911843" Properties=species:S:1:pos:R:3:forces:R:3 generation=8 config_type=dimer_aa source_path=/home/myless/Calc_VASP/MRS/job_gen_7-2025-04-10/Zr/Zr2_dimer_idx_8 formula_string=Zr2 composition_str=Zr2 structure_index=8 date_added_to_db=2025-04-14T00:24:40.121883 structure_id=23876 energy=-8.225841331481934 stress="-2.8866979707210067e-05 0.0 0.0 0.0 1.2545433343025348e-06 0.0 0.0 0.0 1.2670263525543015e-06" calculation_info="_JSON {\"calculation_id\": 23871, \"calculator\": \"vasp\", \"calculation_source_path\": \"/home/myless/Calc_VASP/MRS/job_gen_7-2025-04-10/Zr/Zr2_dimer_idx_8\", \"nbands\": 16, \"parser\": \"ase_outcar\", \"potcar\": \"PAW_PBE Zr_sv 04Jan2005\", \"kpoints\": [1, 2, 2], \"date_run\": \"2025.03.13  02:48:11\", \"vasp_version\": \"vasp.6.4.2 20Jul23\", \"resources_used\": {\"nodes\": 1, \"mpi_ranks\": 4, \"gpus_detected\": true, \"threads_per_rank\": 8}, \"calculation_type\": \"static\"}" parent_id=23876 step=20 variance=0.9600000381469727 loss=0.9600000381469727 pbc="T T T"
Zr       0.00000000       0.00000000       0.00000000       0.05195210       0.00000000       0.00000000
Zr       2.26425000       0.00000000       0.00000000      -0.05195210       0.00000000       0.00000000
2
Lattice="35.751385464 0.0 0.0 0.0 21.450831279 0.0 0.0 0.0 20.25911843" Properties=species:S:1:pos:R:3:forces:R:3 generation=8 config_type=dimer_aa source_path=/home/myless/Calc_VASP/MRS/job_gen_7-2025-04-10/Zr/Zr2_dimer_idx_8 formula_string=Zr2 composition_str=Zr2 structure_index=8 date_added_to_db=2025-04-14T00:24:40.121883 structure_id=23876 energy=-8.201447868347168 stress="-2.8866979707210067e-05 0.0 0.0 0.0 1.2545433343025348e-06 0.0 0.0 0.0 1.2670263525543015e-06" calculation_info="_JSON {\"calculation_id\": 23871, \"calculator\": \"vasp\", \"calculation_source_path\": \"/home/myless/Calc_VASP/MRS/job_gen_7-2025-04-10/Zr/Zr2_dimer_idx_8\", \"nbands\": 16, \"parser\": \"ase_outcar\", \"potcar\": \"PAW_PBE Zr_sv 04Jan2005\", \"kpoints\": [1, 2, 2], \"date_run\": \"2025.03.13  02:48:11\", \"vasp_version\": \"vasp.6.4.2 20Jul23\", \"resources_used\": {\"nodes\": 1, \"mpi_ranks\": 4, \"gpus_detected\": true, \"threads_per_rank\": 8}, \"calculation_type\": \"static\"}" parent_id=23876 step=21 variance=2.6686986377943674e-15 loss=2.6686986377943674e-15 pbc="T T T"
Zr      -0.06497857       0.03065714       0.06170505       0.91251516       0.00882159      -0.03499161
Zr       2.24656285       0.05300360      -0.02693406      -0.91251516      -0.00882159       0.03499161
2