2
Lattice="30.0 0.0 0.0 0.0 18.0 0.0 0.0 0.0 17.0" Properties=species:S:1:pos:R:3:forces:R:3 batch_id=T generation=6 composition=V2 config_type=dimer source_path=V-Cr-Ti-W-Zr/Fixed_Engrads/vcrtiwzr_fin_engrads/job_gen_6-2024-12-23/V/V2_dimer_idx_13 temperature=T date_processed=2025-01-03T17:40:00.533842 structure_type=T structure_index=13 adversarial_step=T structure_id=7938 energy=-3.168885 stress="0.0006367774855499876 0.0 0.0 0.0 1.0985056061554536e-06 0.0 0.0 0.0 1.4667546445825656e-06" calculation_info="_JSON {\"calculation_id\": 7938, \"calculator\": \"vasp\", \"calculation_source_path\": \"\", \"error\": null, \"status\": \"completed\", \"gpu_count\": null, \"parameters\": {}, \"date_started\": null, \"gpu_memory_mb\": null, \"model_version\": null, \"date_completed\": null, \"runtime_seconds\": null}" pbc="T T T"
V        0.00000000       0.00000000       0.00000000       1.66573600       0.00000000       0.00000000
V        3.50000000       0.00000000       0.00000000      -1.66573600       0.00000000       0.00000000
2
Lattice="30.0 0.0 0.0 0.0 18.0 0.0 0.0 0.0 17.0" Properties=species:S:1:pos:R:3:forces:R:3 batch_id=T generation=8 composition=V2 config_type=dimer_aa source_path=V-Cr-Ti-W-Zr/Fixed_Engrads/vcrtiwzr_fin_engrads/job_gen_6-2024-12-23/V/V2_dimer_idx_13 temperature=T date_processed=2025-01-03T17:40:00.533842 structure_type=T structure_index=13 adversarial_step=T structure_id=7938 energy=-6.865379810333252 stress="0.0006367774855499876 0.0 0.0 0.0 1.0985056061554536e-06 0.0 0.0 0.0 1.4667546445825656e-06" calculation_info="_JSON {\"calculation_id\": 7938, \"calculator\": \"vasp\", \"calculation_source_path\": \"\", \"error\": null, \"status\": \"completed\", \"gpu_count\": null, \"parameters\": {}, \"date_started\": null, \"gpu_memory_mb\": null, \"model_version\": null, \"date_completed\": null, \"runtime_seconds\": null}" parent_id=7938 step=0 variance=0.9600000381469727 loss=0.9600000381469727 pbc="T T T"
V        0.00000000       0.00000000       0.00000000      -0.11433182       0.00000000       0.00000000
V        3.50000000       0.00000000       0.00000000       0.11433182       0.00000000       0.00000000
2
Lattice="30.0 0.0 0.0 0.0 18.0 0.0 0.0 0.0 17.0" Properties=species:S:1:pos:R:3:forces:R:3 batch_id=T generation=8 composition=V2 config_type=dimer_aa source_path=V-Cr-Ti-W-Zr/Fixed_Engrads/vcrtiwzr_fin_engrads/job_gen_6-2024-12-23/V/V2_dimer_idx_13 temperature=T date_processed=2025-01-03T17:40:00.533842 structure_type=T structure_index=13 adversarial_step=T structure_id=7938 energy=-6.865379810333252 stress="0.0006367774855499876 0.0 0.0 0.0 1.0985056061554536e-06 0.0 0.0 0.0 1.4667546445825656e-06" calculation_info="_JSON {\"calculation_id\": 7938, \"calculator\": \"vasp\", \"calculation_source_path\": \"\", \"error\": null, \"status\": \"completed\", \"gpu_count\": null, \"parameters\": {}, \"date_started\": null, \"gpu_memory_mb\": null, \"model_version\": null, \"date_completed\": null, \"runtime_seconds\": null}" parent_id=7938 step=1 variance=0.9600000381469727 loss=0.9600000381469727 pbc="T T T"
V        0.00000000       0.00000000       0.00000000      -0.11433182       0.00000000       0.00000000
V        3.50000000       0.00000000       0.00000000       0.11433182       0.00000000       0.00000000
2
Lattice="30.0 0.0 0.0 0.0 18.0 0.0 0.0 0.0 17.0" Properties=species:S:1:pos:R:3:forces:R:3 batch_id=T generation=8 composition=V2 config_type=dimer_aa source_path=V-Cr-Ti-W-Zr/Fixed_Engrads/vcrtiwzr_fin_engrads/job_gen_6-2024-12-23/V/V2_dimer_idx_13 temperature=T date_processed=2025-01-03T17:40:00.533842 structure_type=T structure_index=13 adversarial_step=T structure_id=7938 energy=-6.865379810333252 stress="0.0006367774855499876 0.0 0.0 0.0 1.0985056061554536e-06 0.0 0.0 0.0 1.4667546445825656e-06" calculation_info="_JSON {\"calculation_id\": 7938, \"calculator\": \"vasp\", \"calculation_source_path\": \"\", \"error\": null, \"status\": \"completed\", \"gpu_count\": null, \"parameters\": {}, \"date_started\": null, \"gpu_memory_mb\": null, \"model_version\": null, \"date_completed\": null, \"runtime_seconds\": null}" parent_id=7938 step=2 variance=0.9600000381469727 loss=0.9600000381469727 pbc="T T T"
V        0.00000000       0.00000000       0.00000000      -0.11433182       0.00000000       0.00000000
V        3.50000000       0.00000000       0.00000000       0.11433182       0.00000000       0.00000000
2
Lattice="30.0 0.0 0.0 0.0 18.0 0.0 0.0 0.0 17.0" Properties=species:S:1:pos:R:3:forces:R:3 batch_id=T generation=8 composition=V2 config_type=dimer_aa source_path=V-Cr-Ti-W-Zr/Fixed_Engrads/vcrtiwzr_fin_engrads/job_gen_6-2024-12-23/V/V2_dimer_idx_13 temperature=T date_processed=2025-01-03T17:40:00.533842 structure_type=T structure_index=13 adversarial_step=T structure_id=7938 energy=-6.865379810333252 stress="0.0006367774855499876 0.0 0.0 0.0 1.0985056061554536e-06 0.0 0.0 0.0 1.4667546445825656e-06" calculation_info="_JSON {\"calculation_id\": 7938, \"calculator\": \"vasp\", \"calculation_source_path\": \"\", \"error\": null, \"status\": \"completed\", \"gpu_count\": null, \"parameters\": {}, \"date_started\": null, \"gpu_memory_mb\": null, \"model_version\": null, \"date_completed\": null, \"runtime_seconds\": null}" parent_id=7938 step=3 variance=0.9600000381469727 loss=0.9600000381469727 pbc="T T T"
V        0.00000000       0.00000000       0.00000000      -0.11433182       0.00000000       0.00000000
V        3.50000000       0.00000000       0.00000000       0.11433182       0.00000000       0.00000000
2
Lattice="30.0 0.0 0.0 0.0 18.0 0.0 0.0 0.0 17.0" Properties=species:S:1:pos:R:3:forces:R:3 batch_id=T generation=8 composition=V2 config_type=dimer_aa source_path=V-Cr-Ti-W-Zr/Fixed_Engrads/vcrtiwzr_fin_engrads/job_gen_6-2024-12-23/V/V2_dimer_idx_13 temperature=T date_processed=2025-01-03T17:40:00.533842 structure_type=T structure_index=13 adversarial_step=T structure_id=7938 energy=-6.865379810333252 stress="0.0006367774855499876 0.0 0.0 0.0 1.0985056061554536e-06 0.0 0.0 0.0 1.4667546445825656e-06" calculation_info="_JSON {\"calculation_id\": 7938, \"calculator\": \"vasp\", \"calculation_source_path\": \"\", \"error\": null, \"status\": \"completed\", \"gpu_count\": null, \"parameters\": {}, \"date_started\": null, \"gpu_memory_mb\": null, \"model_version\": null, \"date_completed\": null, \"runtime_seconds\": null}" parent_id=7938 step=4 variance=0.9600000381469727 loss=0.9600000381469727 pbc="T T T"
V        0.00000000       0.00000000       0.00000000      -0.11433182       0.00000000       0.00000000
V        3.50000000       0.00000000       0.00000000       0.11433182       0.00000000       0.00000000
2
Lattice="30.0 0.0 0.0 0.0 18.0 0.0 0.0 0.0 17.0" Properties=species:S:1:pos:R:3:forces:R:3 batch_id=T generation=8 composition=V2 config_type=dimer_aa source_path=V-Cr-Ti-W-Zr/Fixed_Engrads/vcrtiwzr_fin_engrads/job_gen_6-2024-12-23/V/V2_dimer_idx_13 temperature=T date_processed=2025-01-03T17:40:00.533842 structure_type=T structure_index=13 adversarial_step=T structure_id=7938 energy=-6.865379810333252 stress="0.0006367774855499876 0.0 0.0 0.0 1.0985056061554536e-06 0.0 0.0 0.0 1.4667546445825656e-06" calculation_info="_JSON {\"calculation_id\": 7938, \"calculator\": \"vasp\", \"calculation_source_path\": \"\", \"error\": null, \"status\": \"completed\", \"gpu_count\": null, \"parameters\": {}, \"date_started\": null, \"gpu_memory_mb\": null, \"model_version\": null, \"date_completed\": null, \"runtime_seconds\": null}" parent_id=7938 step=5 variance=0.9600000381469727 loss=0.9600000381469727 pbc="T T T"
V        0.00000000       0.00000000       0.00000000      -0.11433182       0.00000000       0.00000000
V        3.50000000       0.00000000       0.00000000       0.11433182       0.00000000       0.00000000
2
Lattice="30.0 0.0 0.0 0.0 18.0 0.0 0.0 0.0 17.0" Properties=species:S:1:pos:R:3:forces:R:3 batch_id=T generation=8 composition=V2 config_type=dimer_aa source_path=V-Cr-Ti-W-Zr/Fixed_Engrads/vcrtiwzr_fin_engrads/job_gen_6-2024-12-23/V/V2_dimer_idx_13 temperature=T date_processed=2025-01-03T17:40:00.533842 structure_type=T structure_index=13 adversarial_step=T structure_id=7938 energy=-6.865379810333252 stress="0.0006367774855499876 0.0 0.0 0.0 1.0985056061554536e-06 0.0 0.0 0.0 1.4667546445825656e-06" calculation_info="_JSON {\"calculation_id\": 7938, \"calculator\": \"vasp\", \"calculation_source_path\": \"\", \"error\": null, \"status\": \"completed\", \"gpu_count\": null, \"parameters\": {}, \"date_started\": null, \"gpu_memory_mb\": null, \"model_version\": null, \"date_completed\": null, \"runtime_seconds\": null}" parent_id=7938 step=6 variance=0.9600000381469727 loss=0.9600000381469727 pbc="T T T"
V        0.00000000       0.00000000       0.00000000      -0.11433182       0.00000000       0.00000000
V        3.50000000       0.00000000       0.00000000       0.11433182       0.00000000       0.00000000
2
Lattice="30.0 0.0 0.0 0.0 18.0 0.0 0.0 0.0 17.0" Properties=species:S:1:pos:R:3:forces:R:3 batch_id=T generation=8 composition=V2 config_type=dimer_aa source_path=V-Cr-Ti-W-Zr/Fixed_Engrads/vcrtiwzr_fin_engrads/job_gen_6-2024-12-23/V/V2_dimer_idx_13 temperature=T date_processed=2025-01-03T17:40:00.533842 structure_type=T structure_index=13 adversarial_step=T structure_id=7938 energy=-6.865379810333252 stress="0.0006367774855499876 0.0 0.0 0.0 1.0985056061554536e-06 0.0 0.0 0.0 1.4667546445825656e-06" calculation_info="_JSON {\"calculation_id\": 7938, \"calculator\": \"vasp\", \"calculation_source_path\": \"\", \"error\": null, \"status\": \"completed\", \"gpu_count\": null, \"parameters\": {}, \"date_started\": null, \"gpu_memory_mb\": null, \"model_version\": null, \"date_completed\": null, \"runtime_seconds\": null}" parent_id=7938 step=7 variance=0.9600000381469727 loss=0.9600000381469727 pbc="T T T"
V        0.00000000       0.00000000       0.00000000      -0.11433182       0.00000000       0.00000000
V        3.50000000       0.00000000       0.00000000       0.11433182       0.00000000       0.00000000
2
Lattice="30.0 0.0 0.0 0.0 18.0 0.0 0.0 0.0 17.0" Properties=species:S:1:pos:R:3:forces:R:3 batch_id=T generation=8 composition=V2 config_type=dimer_aa source_path=V-Cr-Ti-W-Zr/Fixed_Engrads/vcrtiwzr_fin_engrads/job_gen_6-2024-12-23/V/V2_dimer_idx_13 temperature=T date_processed=2025-01-03T17:40:00.533842 structure_type=T structure_index=13 adversarial_step=T structure_id=7938 energy=-6.865379810333252 stress="0.0006367774855499876 0.0 0.0 0.0 1.0985056061554536e-06 0.0 0.0 0.0 1.4667546445825656e-06" calculation_info="_JSON {\"calculation_id\": 7938, \"calculator\": \"vasp\", \"calculation_source_path\": \"\", \"error\": null, \"status\": \"completed\", \"gpu_count\": null, \"parameters\": {}, \"date_started\": null, \"gpu_memory_mb\": null, \"model_version\": null, \"date_completed\": null, \"runtime_seconds\": null}" parent_id=7938 step=8 variance=0.9600000381469727 loss=0.9600000381469727 pbc="T T T"
V        0.00000000       0.00000000       0.00000000      -0.11433182       0.00000000       0.00000000
V        3.50000000       0.00000000       0.00000000       0.11433182       0.00000000       0.00000000
2
Lattice="30.0 0.0 0.0 0.0 18.0 0.0 0.0 0.0 17.0" Properties=species:S:1:pos:R:3:forces:R:3 batch_id=T generation=8 composition=V2 config_type=dimer_aa source_path=V-Cr-Ti-W-Zr/Fixed_Engrads/vcrtiwzr_fin_engrads/job_gen_6-2024-12-23/V/V2_dimer_idx_13 temperature=T date_processed=2025-01-03T17:40:00.533842 structure_type=T structure_index=13 adversarial_step=T structure_id=7938 energy=-6.865379810333252 stress="0.0006367774855499876 0.0 0.0 0.0 1.0985056061554536e-06 0.0 0.0 0.0 1.4667546445825656e-06" calculation_info="_JSON {\"calculation_id\": 7938, \"calculator\": \"vasp\", \"calculation_source_path\": \"\", \"error\": null, \"status\": \"completed\", \"gpu_count\": null, \"parameters\": {}, \"date_started\": null, \"gpu_memory_mb\": null, \"model_version\": null, \"date_completed\": null, \"runtime_seconds\": null}" parent_id=7938 step=9 variance=0.9600000381469727 loss=0.9600000381469727 pbc="T T T"
V        0.00000000       0.00000000       0.00000000      -0.11433182       0.00000000       0.00000000
V        3.50000000       0.00000000       0.00000000       0.11433182       0.00000000       0.00000000
2
Lattice="30.0 0.0 0.0 0.0 18.0 0.0 0.0 0.0 17.0" Properties=species:S:1:pos:R:3:forces:R:3 batch_id=T generation=8 composition=V2 config_type=dimer_aa source_path=V-Cr-Ti-W-Zr/Fixed_Engrads/vcrtiwzr_fin_engrads/job_gen_6-2024-12-23/V/V2_dimer_idx_13 temperature=T date_processed=2025-01-03T17:40:00.533842 structure_type=T structure_index=13 adversarial_step=T structure_id=7938 energy=-6.865379810333252 stress="0.0006367774855499876 0.0 0.0 0.0 1.0985056061554536e-06 0.0 0.0 0.0 1.4667546445825656e-06" calculation_info="_JSON {\"calculation_id\": 7938, \"calculator\": \"vasp\", \"calculation_source_path\": \"\", \"error\": null, \"status\": \"completed\", \"gpu_count\": null, \"parameters\": {}, \"date_started\": null, \"gpu_memory_mb\": null, \"model_version\": null, \"date_completed\": null, \"runtime_seconds\": null}" parent_id=7938 step=10 variance=0.9600000381469727 loss=0.9600000381469727 pbc="T T T"
V        0.00000000       0.00000000       0.00000000      -0.11433182       0.00000000       0.00000000
V        3.50000000       0.00000000       0.00000000       0.11433182       0.00000000       0.00000000
2
Lattice="30.0 0.0 0.0 0.0 18.0 0.0 0.0 0.0 17.0" Properties=species:S:1:pos:R:3:forces:R:3 batch_id=T generation=8 composition=V2 config_type=dimer_aa source_path=V-Cr-Ti-W-Zr/Fixed_Engrads/vcrtiwzr_fin_engrads/job_gen_6-2024-12-23/V/V2_dimer_idx_13 temperature=T date_processed=2025-01-03T17:40:00.533842 structure_type=T structure_index=13 adversarial_step=T structure_id=7938 energy=-6.865379810333252 stress="0.0006367774855499876 0.0 0.0 0.0 1.0985056061554536e-06 0.0 0.0 0.0 1.4667546445825656e-06" calculation_info="_JSON {\"calculation_id\": 7938, \"calculator\": \"vasp\", \"calculation_source_path\": \"\", \"error\": null, \"status\": \"completed\", \"gpu_count\": null, \"parameters\": {}, \"date_started\": null, \"gpu_memory_mb\": null, \"model_version\": null, \"date_completed\": null, \"runtime_seconds\": null}" parent_id=7938 step=11 variance=0.9600000381469727 loss=0.9600000381469727 pbc="T T T"
V        0.00000000       0.00000000       0.00000000      -0.11433182       0.00000000       0.00000000
V        3.50000000       0.00000000       0.00000000       0.11433182       0.00000000       0.00000000
2
Lattice="30.0 0.0 0.0 0.0 18.0 0.0 0.0 0.0 17.0" Properties=species:S:1:pos:R:3:forces:R:3 batch_id=T generation=8 composition=V2 config_type=dimer_aa source_path=V-Cr-Ti-W-Zr/Fixed_Engrads/vcrtiwzr_fin_engrads/job_gen_6-2024-12-23/V/V2_dimer_idx_13 temperature=T date_processed=2025-01-03T17:40:00.533842 structure_type=T structure_index=13 adversarial_step=T structure_id=7938 energy=-6.865379810333252 stress="0.0006367774855499876 0.0 0.0 0.0 1.0985056061554536e-06 0.0 0.0 0.0 1.4667546445825656e-06" calculation_info="_JSON {\"calculation_id\": 7938, \"calculator\": \"vasp\", \"calculation_source_path\": \"\", \"error\": null, \"status\": \"completed\", \"gpu_count\": null, \"parameters\": {}, \"date_started\": null, \"gpu_memory_mb\": null, \"model_version\": null, \"date_completed\": null, \"runtime_seconds\": null}" parent_id=7938 step=12 variance=0.9600000381469727 loss=0.9600000381469727 pbc="T T T"
V        0.00000000       0.00000000       0.00000000      -0.11433182       0.00000000       0.00000000
V        3.50000000       0.00000000       0.00000000       0.11433182       0.00000000       0.00000000
2
Lattice="30.0 0.0 0.0 0.0 18.0 0.0 0.0 0.0 17.0" Properties=species:S:1:pos:R:3:forces:R:3 batch_id=T generation=8 composition=V2 config_type=dimer_aa source_path=V-Cr-Ti-W-Zr/Fixed_Engrads/vcrtiwzr_fin_engrads/job_gen_6-2024-12-23/V/V2_dimer_idx_13 temperature=T date_processed=2025-01-03T17:40:00.533842 structure_type=T structure_index=13 adversarial_step=T structure_id=7938 energy=-6.865379810333252 stress="0.0006367774855499876 0.0 0.0 0.0 1.0985056061554536e-06 0.0 0.0 0.0 1.4667546445825656e-06" calculation_info="_JSON {\"calculation_id\": 7938, \"calculator\": \"vasp\", \"calculation_source_path\": \"\", \"error\": null, \"status\": \"completed\", \"gpu_count\": null, \"parameters\": {}, \"date_started\": null, \"gpu_memory_mb\": null, \"model_version\": null, \"date_completed\": null, \"runtime_seconds\": null}" parent_id=7938 step=13 variance=0.9600000381469727 loss=0.9600000381469727 pbc="T T T"
V        0.00000000       0.00000000       0.00000000      -0.11433182       0.00000000       0.00000000
V        3.50000000       0.00000000       0.00000000       0.11433182       0.00000000       0.00000000
2
Lattice="30.0 0.0 0.0 0.0 18.0 0.0 0.0 0.0 17.0" Properties=species:S:1:pos:R:3:forces:R:3 batch_id=T generation=8 composition=V2 config_type=dimer_aa source_path=V-Cr-Ti-W-Zr/Fixed_Engrads/vcrtiwzr_fin_engrads/job_gen_6-2024-12-23/V/V2_dimer_idx_13 temperature=T date_processed=2025-01-03T17:40:00.533842 structure_type=T structure_index=13 adversarial_step=T structure_id=7938 energy=-6.865379810333252 stress="0.0006367774855499876 0.0 0.0 0.0 1.0985056061554536e-06 0.0 0.0 0.0 1.4667546445825656e-06" calculation_info="_JSON {\"calculation_id\": 7938, \"calculator\": \"vasp\", \"calculation_source_path\": \"\", \"error\": null, \"status\": \"completed\", \"gpu_count\": null, \"parameters\": {}, \"date_started\": null, \"gpu_memory_mb\": null, \"model_version\": null, \"date_completed\": null, \"runtime_seconds\": null}" parent_id=7938 step=14 variance=0.9600000381469727 loss=0.9600000381469727 pbc="T T T"
V        0.00000000       0.00000000       0.00000000      -0.11433182       0.00000000       0.00000000
V        3.50000000       0.00000000       0.00000000       0.11433182       0.00000000       0.00000000
2
Lattice="30.0 0.0 0.0 0.0 18.0 0.0 0.0 0.0 17.0" Properties=species:S:1:pos:R:3:forces:R:3 batch_id=T generation=8 composition=V2 config_type=dimer_aa source_path=V-Cr-Ti-W-Zr/Fixed_Engrads/vcrtiwzr_fin_engrads/job_gen_6-2024-12-23/V/V2_dimer_idx_13 temperature=T date_processed=2025-01-03T17:40:00.533842 structure_type=T structure_index=13 adversarial_step=T structure_id=7938 energy=-6.865379810333252 stress="0.0006367774855499876 0.0 0.0 0.0 1.0985056061554536e-06 0.0 0.0 0.0 1.4667546445825656e-06" calculation_info="_JSON {\"calculation_id\": 7938, \"calculator\": \"vasp\", \"calculation_source_path\": \"\", \"error\": null, \"status\": \"completed\", \"gpu_count\": null, \"parameters\": {}, \"date_started\": null, \"gpu_memory_mb\": null, \"model_version\": null, \"date_completed\": null, \"runtime_seconds\": null}" parent_id=7938 step=15 variance=0.9600000381469727 loss=0.9600000381469727 pbc="T T T"
V        0.00000000       0.00000000       0.00000000      -0.11433182       0.00000000       0.00000000
V        3.50000000       0.00000000       0.00000000       0.11433182       0.00000000       0.00000000
2
Lattice="30.0 0.0 0.0 0.0 18.0 0.0 0.0 0.0 17.0" Properties=species:S:1:pos:R:3:forces:R:3 batch_id=T generation=8 composition=V2 config_type=dimer_aa source_path=V-Cr-Ti-W-Zr/Fixed_Engrads/vcrtiwzr_fin_engrads/job_gen_6-2024-12-23/V/V2_dimer_idx_13 temperature=T date_processed=2025-01-03T17:40:00.533842 structure_type=T structure_index=13 adversarial_step=T structure_id=7938 energy=-6.865379810333252 stress="0.0006367774855499876 0.0 0.0 0.0 1.0985056061554536e-06 0.0 0.0 0.0 1.4667546445825656e-06" calculation_info="_JSON {\"calculation_id\": 7938, \"calculator\": \"vasp\", \"calculation_source_path\": \"\", \"error\": null, \"status\": \"completed\", \"gpu_count\": null, \"parameters\": {}, \"date_started\": null, \"gpu_memory_mb\": null, \"model_version\": null, \"date_completed\": null, \"runtime_seconds\": null}" parent_id=7938 step=16 variance=0.9600000381469727 loss=0.9600000381469727 pbc="T T T"
V        0.00000000       0.00000000       0.00000000      -0.11433182       0.00000000       0.00000000
V        3.50000000       0.00000000       0.00000000       0.11433182       0.00000000       0.00000000
2
Lattice="30.0 0.0 0.0 0.0 18.0 0.0 0.0 0.0 17.0" Properties=species:S:1:pos:R:3:forces:R:3 batch_id=T generation=8 composition=V2 config_type=dimer_aa source_path=V-Cr-Ti-W-Zr/Fixed_Engrads/vcrtiwzr_fin_engrads/job_gen_6-2024-12-23/V/V2_dimer_idx_13 temperature=T date_processed=2025-01-03T17:40:00.533842 structure_type=T structure_index=13 adversarial_step=T structure_id=7938 energy=-6.865379810333252 stress="0.0006367774855499876 0.0 0.0 0.0 1.0985056061554536e-06 0.0 0.0 0.0 1.4667546445825656e-06" calculation_info="_JSON {\"calculation_id\": 7938, \"calculator\": \"vasp\", \"calculation_source_path\": \"\", \"error\": null, \"status\": \"completed\", \"gpu_count\": null, \"parameters\": {}, \"date_started\": null, \"gpu_memory_mb\": null, \"model_version\": null, \"date_completed\": null, \"runtime_seconds\": null}" parent_id=7938 step=17 variance=0.9600000381469727 loss=0.9600000381469727 pbc="T T T"
V        0.00000000       0.00000000       0.00000000      -0.11433182       0.00000000       0.00000000
V        3.50000000       0.00000000       0.00000000       0.11433182       0.00000000       0.00000000
2
Lattice="30.0 0.0 0.0 0.0 18.0 0.0 0.0 0.0 17.0" Properties=species:S:1:pos:R:3:forces:R:3 batch_id=T generation=8 composition=V2 config_type=dimer_aa source_path=V-Cr-Ti-W-Zr/Fixed_Engrads/vcrtiwzr_fin_engrads/job_gen_6-2024-12-23/V/V2_dimer_idx_13 temperature=T date_processed=2025-01-03T17:40:00.533842 structure_type=T structure_index=13 adversarial_step=T structure_id=7938 energy=-6.865379810333252 stress="0.0006367774855499876 0.0 0.0 0.0 1.0985056061554536e-06 0.0 0.0 0.0 1.4667546445825656e-06" calculation_info="_JSON {\"calculation_id\": 7938, \"calculator\": \"vasp\", \"calculation_source_path\": \"\", \"error\": null, \"status\": \"completed\", \"gpu_count\": null, \"parameters\": {}, \"date_started\": null, \"gpu_memory_mb\": null, \"model_version\": null, \"date_completed\": null, \"runtime_seconds\": null}" parent_id=7938 step=18 variance=0.9600000381469727 loss=0.9600000381469727 pbc="T T T"
V        0.00000000       0.00000000       0.00000000      -0.11433182       0.00000000       0.00000000
V        3.50000000       0.00000000       0.00000000       0.11433182       0.00000000       0.00000000
2
Lattice="30.0 0.0 0.0 0.0 18.0 0.0 0.0 0.0 17.0" Properties=species:S:1:pos:R:3:forces:R:3 batch_id=T generation=8 composition=V2 config_type=dimer_aa source_path=V-Cr-Ti-W-Zr/Fixed_Engrads/vcrtiwzr_fin_engrads/job_gen_6-2024-12-23/V/V2_dimer_idx_13 temperature=T date_processed=2025-01-03T17:40:00.533842 structure_type=T structure_index=13 adversarial_step=T structure_id=7938 energy=-6.865379810333252 stress="0.0006367774855499876 0.0 0.0 0.0 1.0985056061554536e-06 0.0 0.0 0.0 1.4667546445825656e-06" calculation_info="_JSON {\"calculation_id\": 7938, \"calculator\": \"vasp\", \"calculation_source_path\": \"\", \"error\": null, \"status\": \"completed\", \"gpu_count\": null, \"parameters\": {}, \"date_started\": null, \"gpu_memory_mb\": null, \"model_version\": null, \"date_completed\": null, \"runtime_seconds\": null}" parent_id=7938 step=19 variance=0.9600000381469727 loss=0.9600000381469727 pbc="T T T"
V        0.00000000       0.00000000       0.00000000      -0.11433182       0.00000000       0.00000000
V        3.50000000       0.00000000       0.00000000       0.11433182       0.00000000       0.00000000
2
Lattice="30.0 0.0 0.0 0.0 18.0 0.0 0.0 0.0 17.0" Properties=species:S:1:pos:R:3:forces:R:3 batch_id=T generation=8 composition=V2 config_type=dimer_aa source_path=V-Cr-Ti-W-Zr/Fixed_Engrads/vcrtiwzr_fin_engrads/job_gen_6-2024-12-23/V/V2_dimer_idx_13 temperature=T date_processed=2025-01-03T17:40:00.533842 structure_type=T structure_index=13 adversarial_step=T structure_id=7938 energy=-6.865379810333252 stress="0.0006367774855499876 0.0 0.0 0.0 1.0985056061554536e-06 0.0 0.0 0.0 1.4667546445825656e-06" calculation_info="_JSON {\"calculation_id\": 7938, \"calculator\": \"vasp\", \"calculation_source_path\": \"\", \"error\": null, \"status\": \"completed\", \"gpu_count\": null, \"parameters\": {}, \"date_started\": null, \"gpu_memory_mb\": null, \"model_version\": null, \"date_completed\": null, \"runtime_seconds\": null}" parent_id=7938 step=20 variance=0.9600000381469727 loss=0.9600000381469727 pbc="T T T"
V        0.00000000       0.00000000       0.00000000      -0.11433182       0.00000000       0.00000000
V        3.50000000       0.00000000       0.00000000       0.11433182       0.00000000       0.00000000
2
Lattice="30.0 0.0 0.0 0.0 18.0 0.0 0.0 0.0 17.0" Properties=species:S:1:pos:R:3:forces:R:3 batch_id=T generation=8 composition=V2 config_type=dimer_aa source_path=V-Cr-Ti-W-Zr/Fixed_Engrads/vcrtiwzr_fin_engrads/job_gen_6-2024-12-23/V/V2_dimer_idx_13 temperature=T date_processed=2025-01-03T17:40:00.533842 structure_type=T structure_index=13 adversarial_step=T structure_id=7938 energy=-6.871885490417481 stress="0.0006367774855499876 0.0 0.0 0.0 1.0985056061554536e-06 0.0 0.0 0.0 1.4667546445825656e-06" calculation_info="_JSON {\"calculation_id\": 7938, \"calculator\": \"vasp\", \"calculation_source_path\": \"\", \"error\": null, \"status\": \"completed\", \"gpu_count\": null, \"parameters\": {}, \"date_started\": null, \"gpu_memory_mb\": null, \"model_version\": null, \"date_completed\": null, \"runtime_seconds\": null}" parent_id=7938 step=21 variance=0.6399999856948853 loss=0.6399999856948853 pbc="T T T"
V       -0.03637978      -0.05142113       0.00051518      -0.21547219      -0.00541857       0.00006529
V        3.50161201       0.03755029      -0.00055692       0.21547219       0.00541857      -0.00006529
2
Lattice="30.0 0.0 0.0 0.0 18.0 0.0 0.0 0.0 17.0" Properties=species:S:1:pos:R:3:forces:R:3 batch_id=T generation=8 composition=V2 config_type=dimer_aa source_path=V-Cr-Ti-W-Zr/Fixed_Engrads/vcrtiwzr_fin_engrads/job_gen_6-2024-12-23/V/V2_dimer_idx_13 temperature=T date_processed=2025-01-03T17:40:00.533842 structure_type=T structure_index=13 adversarial_step=T structure_id=7938 energy=-6.871838092803955 stress="0.0006367774855499876 0.0 0.0 0.0 1.0985056061554536e-06 0.0 0.0 0.0 1.4667546445825656e-06" calculation_info="_JSON {\"calculation_id\": 7938, \"calculator\": \"vasp\", \"calculation_source_path\": \"\", \"error\": null, \"status\": \"completed\", \"gpu_count\": null, \"parameters\": {}, \"date_started\": null, \"gpu_memory_mb\": null, \"model_version\": null, \"date_completed\": null, \"runtime_seconds\": null}" parent_id=7938 step=22 variance=0.6400001049041748 loss=0.6400001049041748 pbc="T T T"
V       -0.04637961      -0.05142113       0.00051518      -0.21496542      -0.00479824       0.00067272
V        3.49161218       0.02755038      -0.01055675       0.21496542       0.00479824      -0.00067272
2
Lattice="30.0 0.0 0.0 0.0 18.0 0.0 0.0 0.0 17.0" Properties=species:S:1:pos:R:3:forces:R:3 batch_id=T generation=8 composition=V2 config_type=dimer_aa source_path=V-Cr-Ti-W-Zr/Fixed_Engrads/vcrtiwzr_fin_engrads/job_gen_6-2024-12-23/V/V2_dimer_idx_13 temperature=T date_processed=2025-01-03T17:40:00.533842 structure_type=T structure_index=13 adversarial_step=T structure_id=7938 energy=-6.87180528640747 stress="0.0006367774855499876 0.0 0.0 0.0 1.0985056061554536e-06 0.0 0.0 0.0 1.4667546445825656e-06" calculation_info="_JSON {\"calculation_id\": 7938, \"calculator\": \"vasp\", \"calculation_source_path\": \"\", \"error\": null, \"status\": \"completed\", \"gpu_count\": null, \"parameters\": {}, \"date_started\": null, \"gpu_memory_mb\": null, \"model_version\": null, \"date_completed\": null, \"runtime_seconds\": null}" parent_id=7938 step=23 variance=0.6399999856948853 loss=0.6399999856948853 pbc="T T T"
V       -0.05603133      -0.05142113       0.00051518      -0.21461251      -0.00422492       0.00125708
V        3.48196046       0.01822868      -0.02020846       0.21461251       0.00422492      -0.00125708
2
Lattice="30.0 0.0 0.0 0.0 18.0 0.0 0.0 0.0 17.0" Properties=species:S:1:pos:R:3:forces:R:3 batch_id=T generation=8 composition=V2 config_type=dimer_aa source_path=V-Cr-Ti-W-Zr/Fixed_Engrads/vcrtiwzr_fin_engrads/job_gen_6-2024-12-23/V/V2_dimer_idx_13 temperature=T date_processed=2025-01-03T17:40:00.533842 structure_type=T structure_index=13 adversarial_step=T structure_id=7938 energy=-6.872505187988281 stress="0.0006367774855499876 0.0 0.0 0.0 1.0985056061554536e-06 0.0 0.0 0.0 1.4667546445825656e-06" calculation_info="_JSON {\"calculation_id\": 7938, \"calculator\": \"vasp\", \"calculation_source_path\": \"\", \"error\": null, \"status\": \"completed\", \"gpu_count\": null, \"parameters\": {}, \"date_started\": null, \"gpu_memory_mb\": null, \"model_version\": null, \"date_completed\": null, \"runtime_seconds\": null}" parent_id=7938 step=24 variance=0.6399999260902405 loss=0.6399999260902405 pbc="T T T"
V       -0.06349211      -0.05142113       0.00051518      -0.22218530      -0.00412107       0.00156381
V        3.47775962       0.01426167      -0.02440931       0.22218530       0.00412107      -0.00156381
2