6
Lattice="-0.266266223 4.09782291 3.693975554 3.640605552 -0.420820788 3.56164297 3.915125511 4.039886529 0.305326769" Properties=species:S:1:pos:R:3:forces:R:3 batch_id=T generation=6 composition=V6 config_type=C15 source_path=V-Cr-Ti-W-Zr/Fixed_Engrads/vcrtiwzr_fin_engrads/job_gen_6-2024-12-23/V/V6_C15_idx_3093 temperature=T date_processed=2025-01-03T17:40:31.723034 structure_type=T structure_index=3093 adversarial_step=T structure_id=8402 energy=-48.63537 stress="0.17185286966833763 -0.008099787396423355 -0.004526292486017532 -0.008099787396423355 0.20352105115426236 0.0032937442298746097 -0.004526292486017532 0.0032937442298746097 0.15778716073997529" calculation_info="_JSON {\"calculation_id\": 8402, \"calculator\": \"vasp\", \"calculation_source_path\": \"\", \"error\": null, \"status\": \"completed\", \"gpu_count\": null, \"parameters\": {}, \"date_started\": null, \"gpu_memory_mb\": null, \"model_version\": null, \"date_completed\": null, \"runtime_seconds\": null}" pbc="T T T"
V        0.91118000       0.96461000       0.94512000       0.00000000       0.00000000       0.00000000
V        2.73149000       0.75420000       2.72594000       0.00000000       0.00000000       0.00000000
V        2.86875000       2.98455000       1.09778000       0.00000000       0.00000000       0.00000000
V        0.77805000       3.01352000       2.79211000       0.00000000       0.00000000       0.00000000
V        3.64473000       3.85844000       3.78047000       0.00003100      -0.04304500       0.02589300
V        5.46710000       5.78767000       5.67071000      -0.00003100       0.04304500      -0.02589300
6
Lattice="-0.266266223 4.09782291 3.693975554 3.640605552 -0.420820788 3.56164297 3.915125511 4.039886529 0.305326769" Properties=species:S:1:pos:R:3:forces:R:3 batch_id=T generation=8 composition=V6 config_type=C15_aa source_path=V-Cr-Ti-W-Zr/Fixed_Engrads/vcrtiwzr_fin_engrads/job_gen_6-2024-12-23/V/V6_C15_idx_3093 temperature=T date_processed=2025-01-03T17:40:31.723034 structure_type=T structure_index=3093 adversarial_step=T structure_id=8402 energy=-48.69047317504883 stress="0.17185286966833763 -0.008099787396423355 -0.004526292486017532 -0.008099787396423355 0.20352105115426236 0.0032937442298746097 -0.004526292486017532 0.0032937442298746097 0.15778716073997529" calculation_info="_JSON {\"calculation_id\": 8402, \"calculator\": \"vasp\", \"calculation_source_path\": \"\", \"error\": null, \"status\": \"completed\", \"gpu_count\": null, \"parameters\": {}, \"date_started\": null, \"gpu_memory_mb\": null, \"model_version\": null, \"date_completed\": null, \"runtime_seconds\": null}" parent_id=8402 step=0 variance=0.46161675453186035 loss=0.46161675453186035 pbc="T T T"
V        0.91118000       0.96461000       0.94512000       0.00001265      -0.00000939       0.00000612
V        2.73149000       0.75420000       2.72594000      -0.00001466      -0.00000491      -0.00000786
V        2.86875000       2.98455000       1.09778000      -0.00000398       0.00001213       0.00000984
V        0.77805000       3.01352000       2.79211000      -0.00000082       0.00000755      -0.00001178
V        3.64473000       3.85844000       3.78047000      -0.00678091      -0.02188849       0.03743883
V        5.46710000       5.78767000       5.67071000       0.00678773       0.02188305      -0.03743511
6
Lattice="-0.266266223 4.09782291 3.693975554 3.640605552 -0.420820788 3.56164297 3.915125511 4.039886529 0.305326769" Properties=species:S:1:pos:R:3:forces:R:3 batch_id=T generation=8 composition=V6 config_type=C15_aa source_path=V-Cr-Ti-W-Zr/Fixed_Engrads/vcrtiwzr_fin_engrads/job_gen_6-2024-12-23/V/V6_C15_idx_3093 temperature=T date_processed=2025-01-03T17:40:31.723034 structure_type=T structure_index=3093 adversarial_step=T structure_id=8402 energy=-48.68877029418945 stress="0.17185286966833763 -0.008099787396423355 -0.004526292486017532 -0.008099787396423355 0.20352105115426236 0.0032937442298746097 -0.004526292486017532 0.0032937442298746097 0.15778716073997529" calculation_info="_JSON {\"calculation_id\": 8402, \"calculator\": \"vasp\", \"calculation_source_path\": \"\", \"error\": null, \"status\": \"completed\", \"gpu_count\": null, \"parameters\": {}, \"date_started\": null, \"gpu_memory_mb\": null, \"model_version\": null, \"date_completed\": null, \"runtime_seconds\": null}" parent_id=8402 step=1 variance=0.5342610478401184 loss=0.5342610478401184 pbc="T T T"
V        0.90118000       0.95461000       0.93512000       0.05465668       0.05484947       0.01059902
V        2.74149000       0.76420000       2.71594000      -0.04031546      -0.00837200       0.00414861
V        2.87875000       2.99455000       1.08778000      -0.01620307      -0.02486659       0.01246666
V        0.78805000       3.02352000       2.80211000      -0.03615593      -0.01350105      -0.02281930
V        3.63473000       3.86844000       3.77047000       0.01253987      -0.02686529       0.03627556
V        5.45710000       5.79767000       5.66071000       0.02547798       0.01875551      -0.04067056
6
Lattice="-0.266266223 4.09782291 3.693975554 3.640605552 -0.420820788 3.56164297 3.915125511 4.039886529 0.305326769" Properties=species:S:1:pos:R:3:forces:R:3 batch_id=T generation=8 composition=V6 config_type=C15_aa source_path=V-Cr-Ti-W-Zr/Fixed_Engrads/vcrtiwzr_fin_engrads/job_gen_6-2024-12-23/V/V6_C15_idx_3093 temperature=T date_processed=2025-01-03T17:40:31.723034 structure_type=T structure_index=3093 adversarial_step=T structure_id=8402 energy=-48.68576431274414 stress="0.17185286966833763 -0.008099787396423355 -0.004526292486017532 -0.008099787396423355 0.20352105115426236 0.0032937442298746097 -0.004526292486017532 0.0032937442298746097 0.15778716073997529" calculation_info="_JSON {\"calculation_id\": 8402, \"calculator\": \"vasp\", \"calculation_source_path\": \"\", \"error\": null, \"status\": \"completed\", \"gpu_count\": null, \"parameters\": {}, \"date_started\": null, \"gpu_memory_mb\": null, \"model_version\": null, \"date_completed\": null, \"runtime_seconds\": null}" parent_id=8402 step=2 variance=0.515540599822998 loss=0.515540599822998 pbc="T T T"
V        0.89478220       0.94790479       0.92837298       0.09046167       0.09194021       0.01772937
V        2.74815512       0.77078374       2.70928010      -0.06678440      -0.01288193       0.00665024
V        2.88547883       3.00121436       1.08133435      -0.02736260      -0.04166137       0.01976116
V        0.79470322       3.03036327       2.80883547      -0.05906330      -0.02405058      -0.03858801
V        3.62803104       3.87515175       3.76351106       0.02556650      -0.03121745       0.03755220
V        5.45044420       5.80439444       5.65365191       0.03718209       0.01787116      -0.04310501
6
Lattice="-0.266266223 4.09782291 3.693975554 3.640605552 -0.420820788 3.56164297 3.915125511 4.039886529 0.305326769" Properties=species:S:1:pos:R:3:forces:R:3 batch_id=T generation=8 composition=V6 config_type=C15_aa source_path=V-Cr-Ti-W-Zr/Fixed_Engrads/vcrtiwzr_fin_engrads/job_gen_6-2024-12-23/V/V6_C15_idx_3093 temperature=T date_processed=2025-01-03T17:40:31.723034 structure_type=T structure_index=3093 adversarial_step=T structure_id=8402 energy=-48.6824447631836 stress="0.17185286966833763 -0.008099787396423355 -0.004526292486017532 -0.008099787396423355 0.20352105115426236 0.0032937442298746097 -0.004526292486017532 0.0032937442298746097 0.15778716073997529" calculation_info="_JSON {\"calculation_id\": 8402, \"calculator\": \"vasp\", \"calculation_source_path\": \"\", \"error\": null, \"status\": \"completed\", \"gpu_count\": null, \"parameters\": {}, \"date_started\": null, \"gpu_memory_mb\": null, \"model_version\": null, \"date_completed\": null, \"runtime_seconds\": null}" parent_id=8402 step=3 variance=0.501101016998291 loss=0.501101016998291 pbc="T T T"
V        0.89002757       0.94272571       0.92313592       0.11766021       0.12086449       0.02349617
V        2.75328530       0.77581618       2.70415090      -0.08684044      -0.01569481       0.00826849
V        2.89069130       3.00633264       1.07649512      -0.03630237      -0.05470867       0.02491382
V        0.79981752       3.03574088       2.81405570      -0.07563859      -0.03328203      -0.05137653
V        3.62285980       3.88036196       3.75798813       0.03558645      -0.03512101       0.03973776
V        5.44534835       5.80956983       5.64789945       0.04553463       0.01794201      -0.04503967
6
Lattice="-0.266266223 4.09782291 3.693975554 3.640605552 -0.420820788 3.56164297 3.915125511 4.039886529 0.305326769" Properties=species:S:1:pos:R:3:forces:R:3 batch_id=T generation=8 composition=V6 config_type=C15_aa source_path=V-Cr-Ti-W-Zr/Fixed_Engrads/vcrtiwzr_fin_engrads/job_gen_6-2024-12-23/V/V6_C15_idx_3093 temperature=T date_processed=2025-01-03T17:40:31.723034 structure_type=T structure_index=3093 adversarial_step=T structure_id=8402 energy=-48.67909393310547 stress="0.17185286966833763 -0.008099787396423355 -0.004526292486017532 -0.008099787396423355 0.20352105115426236 0.0032937442298746097 -0.004526292486017532 0.0032937442298746097 0.15778716073997529" calculation_info="_JSON {\"calculation_id\": 8402, \"calculator\": \"vasp\", \"calculation_source_path\": \"\", \"error\": null, \"status\": \"completed\", \"gpu_count\": null, \"parameters\": {}, \"date_started\": null, \"gpu_memory_mb\": null, \"model_version\": null, \"date_completed\": null, \"runtime_seconds\": null}" parent_id=8402 step=4 variance=0.49066174030303955 loss=0.49066174030303955 pbc="T T T"
V        0.88628378       0.93848889       0.91883151       0.13955472       0.14475037       0.02850317
V        2.75746834       0.77990150       2.69996126      -0.10291169      -0.01752790       0.00932284
V        2.89496771       3.01049512       1.07263164      -0.04388679      -0.06541345       0.02886050
V        0.80398520       3.04020934       2.81835103      -0.08826730      -0.04167151      -0.06241302
V        3.61863650       3.88465844       3.75336941       0.04369283      -0.03866391       0.04232729
V        5.44121541       5.81377774       5.64294981       0.05181816       0.01852638      -0.04660076
6
Lattice="-0.266266223 4.09782291 3.693975554 3.640605552 -0.420820788 3.56164297 3.915125511 4.039886529 0.305326769" Properties=species:S:1:pos:R:3:forces:R:3 batch_id=T generation=8 composition=V6 config_type=C15_aa source_path=V-Cr-Ti-W-Zr/Fixed_Engrads/vcrtiwzr_fin_engrads/job_gen_6-2024-12-23/V/V6_C15_idx_3093 temperature=T date_processed=2025-01-03T17:40:31.723034 structure_type=T structure_index=3093 adversarial_step=T structure_id=8402 energy=-48.67583389282227 stress="0.17185286966833763 -0.008099787396423355 -0.004526292486017532 -0.008099787396423355 0.20352105115426236 0.0032937442298746097 -0.004526292486017532 0.0032937442298746097 0.15778716073997529" calculation_info="_JSON {\"calculation_id\": 8402, \"calculator\": \"vasp\", \"calculation_source_path\": \"\", \"error\": null, \"status\": \"completed\", \"gpu_count\": null, \"parameters\": {}, \"date_started\": null, \"gpu_memory_mb\": null, \"model_version\": null, \"date_completed\": null, \"runtime_seconds\": null}" parent_id=8402 step=5 variance=0.48290765285491943 loss=0.48290765285491943 pbc="T T T"
V        0.88324770       0.93491400       0.91518165       0.15772258       0.16508141       0.03301165
V        2.76098750       0.78332790       2.69642928      -0.11619580      -0.01872265       0.00996176
V        2.89858705       3.01398553       1.06944112      -0.05050033      -0.07444352       0.03203031
V        0.80749042       3.04403460       2.82199782      -0.09814842      -0.04941728      -0.07223288
V        3.61508270       3.88832042       3.74939752       0.05043356      -0.04189614       0.04509456
V        5.43775320       5.81730265       5.63856290       0.05668849       0.01939822      -0.04786546
6
Lattice="-0.266266223 4.09782291 3.693975554 3.640605552 -0.420820788 3.56164297 3.915125511 4.039886529 0.305326769" Properties=species:S:1:pos:R:3:forces:R:3 batch_id=T generation=8 composition=V6 config_type=C15_aa source_path=V-Cr-Ti-W-Zr/Fixed_Engrads/vcrtiwzr_fin_engrads/job_gen_6-2024-12-23/V/V6_C15_idx_3093 temperature=T date_processed=2025-01-03T17:40:31.723034 structure_type=T structure_index=3093 adversarial_step=T structure_id=8402 energy=-48.67271881103515 stress="0.17185286966833763 -0.008099787396423355 -0.004526292486017532 -0.008099787396423355 0.20352105115426236 0.0032937442298746097 -0.004526292486017532 0.0032937442298746097 0.15778716073997529" calculation_info="_JSON {\"calculation_id\": 8402, \"calculator\": \"vasp\", \"calculation_source_path\": \"\", \"error\": null, \"status\": \"completed\", \"gpu_count\": null, \"parameters\": {}, \"date_started\": null, \"gpu_memory_mb\": null, \"model_version\": null, \"date_completed\": null, \"runtime_seconds\": null}" parent_id=8402 step=6 variance=0.47697070240974426 loss=0.47697070240974426 pbc="T T T"
V        0.88074410       0.93184014       0.91202580       0.17306070       0.18270373       0.03714978
V        2.76400505       0.78626030       2.69339250      -0.12737319      -0.01948525       0.01030379
V        2.90171030       3.01696811       1.06674918      -0.05635927      -0.08217885       0.03466337
V        0.81049669       3.04737093       2.82515640      -0.10599885      -0.05662108      -0.08113775
V        3.61203722       3.89150577       3.74592296       0.05613123      -0.04485432       0.04790512
V        5.43479306       5.82031149       5.63461129       0.06053932       0.02043582      -0.04888427
6
Lattice="-0.266266223 4.09782291 3.693975554 3.640605552 -0.420820788 3.56164297 3.915125511 4.039886529 0.305326769" Properties=species:S:1:pos:R:3:forces:R:3 batch_id=T generation=8 composition=V6 config_type=C15_aa source_path=V-Cr-Ti-W-Zr/Fixed_Engrads/vcrtiwzr_fin_engrads/job_gen_6-2024-12-23/V/V6_C15_idx_3093 temperature=T date_processed=2025-01-03T17:40:31.723034 structure_type=T structure_index=3093 adversarial_step=T structure_id=8402 energy=-48.66978073120117 stress="0.17185286966833763 -0.008099787396423355 -0.004526292486017532 -0.008099787396423355 0.20352105115426236 0.0032937442298746097 -0.004526292486017532 0.0032937442298746097 0.15778716073997529" calculation_info="_JSON {\"calculation_id\": 8402, \"calculator\": \"vasp\", \"calculation_source_path\": \"\", \"error\": null, \"status\": \"completed\", \"gpu_count\": null, \"parameters\": {}, \"date_started\": null, \"gpu_memory_mb\": null, \"model_version\": null, \"date_completed\": null, \"runtime_seconds\": null}" parent_id=8402 step=7 variance=0.4723280966281891 loss=0.4723280966281891 pbc="T T T"
V        0.87866231       0.92916436       0.90926088       0.18613763       0.19814286       0.04098022
V        2.76662581       0.78880445       2.69074688      -0.13688807      -0.01994466       0.01041262
V        2.90444119       3.01954881       1.06444562      -0.06159140      -0.08885992       0.03691484
V        0.81310918       3.05031733       2.82792846      -0.11228149      -0.06333961      -0.08930360
V        3.60939532       3.89431574       3.74285106       0.06099145      -0.04756210       0.05067928
V        5.43222663       5.82291138       5.63100751       0.06363194       0.02156343      -0.04968333
6
Lattice="-0.266266223 4.09782291 3.693975554 3.640605552 -0.420820788 3.56164297 3.915125511 4.039886529 0.305326769" Properties=species:S:1:pos:R:3:forces:R:3 batch_id=T generation=8 composition=V6 config_type=C15_aa source_path=V-Cr-Ti-W-Zr/Fixed_Engrads/vcrtiwzr_fin_engrads/job_gen_6-2024-12-23/V/V6_C15_idx_3093 temperature=T date_processed=2025-01-03T17:40:31.723034 structure_type=T structure_index=3093 adversarial_step=T structure_id=8402 energy=-48.66702423095703 stress="0.17185286966833763 -0.008099787396423355 -0.004526292486017532 -0.008099787396423355 0.20352105115426236 0.0032937442298746097 -0.004526292486017532 0.0032937442298746097 0.15778716073997529" calculation_info="_JSON {\"calculation_id\": 8402, \"calculator\": \"vasp\", \"calculation_source_path\": \"\", \"error\": null, \"status\": \"completed\", \"gpu_count\": null, \"parameters\": {}, \"date_started\": null, \"gpu_memory_mb\": null, \"model_version\": null, \"date_completed\": null, \"runtime_seconds\": null}" parent_id=8402 step=8 variance=0.46863338351249695 loss=0.46863338351249695 pbc="T T T"
V        0.87692185       0.92681465       0.90681520       0.19737074       0.21178679       0.04455296
V        2.76892260       0.79103345       2.68842045      -0.14505699      -0.02018753       0.01034401
V        2.90685146       3.02180088       1.06245302      -0.06628620      -0.09466524       0.03886942
V        0.81540036       3.05294285       2.83038485      -0.11733528      -0.06962074      -0.09684379
V        3.60708504       3.89681940       3.74011724       0.06517227      -0.05004156       0.05336805
V        5.42997898       5.82517760       5.62769216       0.06613553       0.02272828      -0.05029066
6
Lattice="-0.266266223 4.09782291 3.693975554 3.640605552 -0.420820788 3.56164297 3.915125511 4.039886529 0.305326769" Properties=species:S:1:pos:R:3:forces:R:3 batch_id=T generation=8 composition=V6 config_type=C15_aa source_path=V-Cr-Ti-W-Zr/Fixed_Engrads/vcrtiwzr_fin_engrads/job_gen_6-2024-12-23/V/V6_C15_idx_3093 temperature=T date_processed=2025-01-03T17:40:31.723034 structure_type=T structure_index=3093 adversarial_step=T structure_id=8402 energy=-48.66445617675781 stress="0.17185286966833763 -0.008099787396423355 -0.004526292486017532 -0.008099787396423355 0.20352105115426236 0.0032937442298746097 -0.004526292486017532 0.0032937442298746097 0.15778716073997529" calculation_info="_JSON {\"calculation_id\": 8402, \"calculator\": \"vasp\", \"calculation_source_path\": \"\", \"error\": null, \"status\": \"completed\", \"gpu_count\": null, \"parameters\": {}, \"date_started\": null, \"gpu_memory_mb\": null, \"model_version\": null, \"date_completed\": null, \"runtime_seconds\": null}" parent_id=8402 step=9 variance=0.46566757559776306 loss=0.46566757559776306 pbc="T T T"
V        0.87546696       0.92473900       0.90463666       0.20703161       0.22388777       0.04788727
V        2.77094882       0.79300042       2.68636033      -0.15210447      -0.02027406       0.01013824
V        2.90899378       3.02377822       1.06071639      -0.07050722      -0.09971219       0.04060430
V        0.81742356       3.05529865       2.83257722      -0.12139302      -0.07549480      -0.10385184
V        3.60505266       3.89906674       3.73767406       0.06878085      -0.05230869       0.05594186
V        5.42799533       5.82716495       5.62461831       0.06819230       0.02390197      -0.05071986
6
Lattice="-0.266266223 4.09782291 3.693975554 3.640605552 -0.420820788 3.56164297 3.915125511 4.039886529 0.305326769" Properties=species:S:1:pos:R:3:forces:R:3 batch_id=T generation=8 composition=V6 config_type=C15_aa source_path=V-Cr-Ti-W-Zr/Fixed_Engrads/vcrtiwzr_fin_engrads/job_gen_6-2024-12-23/V/V6_C15_idx_3093 temperature=T date_processed=2025-01-03T17:40:31.723034 structure_type=T structure_index=3093 adversarial_step=T structure_id=8402 energy=-48.66208190917969 stress="0.17185286966833763 -0.008099787396423355 -0.004526292486017532 -0.008099787396423355 0.20352105115426236 0.0032937442298746097 -0.004526292486017532 0.0032937442298746097 0.15778716073997529" calculation_info="_JSON {\"calculation_id\": 8402, \"calculator\": \"vasp\", \"calculation_source_path\": \"\", \"error\": null, \"status\": \"completed\", \"gpu_count\": null, \"parameters\": {}, \"date_started\": null, \"gpu_memory_mb\": null, \"model_version\": null, \"date_completed\": null, \"runtime_seconds\": null}" parent_id=8402 step=10 variance=0.4632766544818878 loss=0.4632766544818878 pbc="T T T"
V        0.87425677       0.92289740       0.90268507       0.21534669       0.23466165       0.05100996
V        2.77274456       0.79474530       2.68452623      -0.15820014      -0.02025300       0.00982774
V        2.91090810       3.02552200       1.05919353      -0.07430615      -0.10409887       0.04216605
V        0.81921929       3.05742382       2.83454471      -0.12464352      -0.08098888      -0.11039023
V        3.60325707       3.90109510       3.73548535       0.07190715      -0.05438104       0.05837477
V        5.42623462       5.82891686       5.62175511       0.06989591       0.02506011      -0.05098831
6
Lattice="-0.266266223 4.09782291 3.693975554 3.640605552 -0.420820788 3.56164297 3.915125511 4.039886529 0.305326769" Properties=species:S:1:pos:R:3:forces:R:3 batch_id=T generation=8 composition=V6 config_type=C15_aa source_path=V-Cr-Ti-W-Zr/Fixed_Engrads/vcrtiwzr_fin_engrads/job_gen_6-2024-12-23/V/V6_C15_idx_3093 temperature=T date_processed=2025-01-03T17:40:31.723034 structure_type=T structure_index=3093 adversarial_step=T structure_id=8402 energy=-48.659891510009764 stress="0.17185286966833763 -0.008099787396423355 -0.004526292486017532 -0.008099787396423355 0.20352105115426236 0.0032937442298746097 -0.004526292486017532 0.0032937442298746097 0.15778716073997529" calculation_info="_JSON {\"calculation_id\": 8402, \"calculator\": \"vasp\", \"calculation_source_path\": \"\", \"error\": null, \"status\": \"completed\", \"gpu_count\": null, \"parameters\": {}, \"date_started\": null, \"gpu_memory_mb\": null, \"model_version\": null, \"date_completed\": null, \"runtime_seconds\": null}" parent_id=8402 step=11 variance=0.46135058999061584 loss=0.46135058999061584 pbc="T T T"
V        0.87325518       0.92125794       0.90092959       0.22249536       0.24426565       0.05393093
V        2.77434137       0.79630004       2.68288648      -0.16347846      -0.02016121       0.00943503
V        2.91262588       3.02706445       1.05785142      -0.07772605      -0.10789927       0.04359707
V        0.82081921       3.05934833       2.83631822      -0.12723045      -0.08611865      -0.11651404
V        3.60166619       3.90293461       3.73352219       0.07461195      -0.05627402       0.06065442
V        5.42466436       5.83046556       5.61907219       0.07132769       0.02618751      -0.05110342
6
Lattice="-0.266266223 4.09782291 3.693975554 3.640605552 -0.420820788 3.56164297 3.915125511 4.039886529 0.305326769" Properties=species:S:1:pos:R:3:forces:R:3 batch_id=T generation=8 composition=V6 config_type=C15_aa source_path=V-Cr-Ti-W-Zr/Fixed_Engrads/vcrtiwzr_fin_engrads/job_gen_6-2024-12-23/V/V6_C15_idx_3093 temperature=T date_processed=2025-01-03T17:40:31.723034 structure_type=T structure_index=3093 adversarial_step=T structure_id=8402 energy=-48.65787811279297 stress="0.17185286966833763 -0.008099787396423355 -0.004526292486017532 -0.008099787396423355 0.20352105115426236 0.0032937442298746097 -0.004526292486017532 0.0032937442298746097 0.15778716073997529" calculation_info="_JSON {\"calculation_id\": 8402, \"calculator\": \"vasp\", \"calculation_source_path\": \"\", \"error\": null, \"status\": \"completed\", \"gpu_count\": null, \"parameters\": {}, \"date_started\": null, \"gpu_memory_mb\": null, \"model_version\": null, \"date_completed\": null, \"runtime_seconds\": null}" parent_id=8402 step=12 variance=0.45982059836387634 loss=0.45982059836387634 pbc="T T T"
V        0.87243811       0.91979488       0.89934489       0.22861043       0.25283918       0.05667121
V        2.77576419       0.79768959       2.68141567      -0.16804844      -0.02001515       0.00897949
V        2.91417248       3.02843168       1.05666466      -0.08079211      -0.11118082       0.04491764
V        0.82224873       3.06109707       2.83792237      -0.12925909      -0.09091419      -0.12226178
V        3.60025448       3.90460982       3.73176045       0.07695055      -0.05800249       0.06277295
V        5.42325921       5.83183808       5.61654812       0.07253863       0.02727349      -0.05107952
6
Lattice="-0.266266223 4.09782291 3.693975554 3.640605552 -0.420820788 3.56164297 3.915125511 4.039886529 0.305326769" Properties=species:S:1:pos:R:3:forces:R:3 batch_id=T generation=8 composition=V6 config_type=C15_aa source_path=V-Cr-Ti-W-Zr/Fixed_Engrads/vcrtiwzr_fin_engrads/job_gen_6-2024-12-23/V/V6_C15_idx_3093 temperature=T date_processed=2025-01-03T17:40:31.723034 structure_type=T structure_index=3093 adversarial_step=T structure_id=8402 energy=-48.6560302734375 stress="0.17185286966833763 -0.008099787396423355 -0.004526292486017532 -0.008099787396423355 0.20352105115426236 0.0032937442298746097 -0.004526292486017532 0.0032937442298746097 0.15778716073997529" calculation_info="_JSON {\"calculation_id\": 8402, \"calculator\": \"vasp\", \"calculation_source_path\": \"\", \"error\": null, \"status\": \"completed\", \"gpu_count\": null, \"parameters\": {}, \"date_started\": null, \"gpu_memory_mb\": null, \"model_version\": null, \"date_completed\": null, \"runtime_seconds\": null}" parent_id=8402 step=13 variance=0.45862331986427307 loss=0.45862331986427307 pbc="T T T"
V        0.87178294       0.91848752       0.89791061       0.23380408       0.26048654       0.05921817
V        2.77703425       0.79893444       2.68009264      -0.17199144      -0.01983841       0.00848745
V        2.91556864       3.02964548       1.05561283      -0.08354402      -0.11400084       0.04615023
V        0.82352895       3.06269124       2.83937773      -0.13082191      -0.09539304      -0.12766996
V        3.59900012       3.90613986       3.73017914       0.07897632      -0.05956863       0.06473662
V        5.42199831       5.83305435       5.61416508       0.07357694       0.02831433      -0.05092251
6
Lattice="-0.266266223 4.09782291 3.693975554 3.640605552 -0.420820788 3.56164297 3.915125511 4.039886529 0.305326769" Properties=species:S:1:pos:R:3:forces:R:3 batch_id=T generation=8 composition=V6 config_type=C15_aa source_path=V-Cr-Ti-W-Zr/Fixed_Engrads/vcrtiwzr_fin_engrads/job_gen_6-2024-12-23/V/V6_C15_idx_3093 temperature=T date_processed=2025-01-03T17:40:31.723034 structure_type=T structure_index=3093 adversarial_step=T structure_id=8402 energy=-48.65435028076172 stress="0.17185286966833763 -0.008099787396423355 -0.004526292486017532 -0.008099787396423355 0.20352105115426236 0.0032937442298746097 -0.004526292486017532 0.0032937442298746097 0.15778716073997529" calculation_info="_JSON {\"calculation_id\": 8402, \"calculator\": \"vasp\", \"calculation_source_path\": \"\", \"error\": null, \"status\": \"completed\", \"gpu_count\": null, \"parameters\": {}, \"date_started\": null, \"gpu_memory_mb\": null, \"model_version\": null, \"date_completed\": null, \"runtime_seconds\": null}" parent_id=8402 step=14 variance=0.4577099084854126 loss=0.4577099084854126 pbc="T T T"
V        0.87126805       0.91731805       0.89660934       0.23819697       0.26731378       0.06160195
V        2.77816927       0.80005198       2.67890010      -0.17539349      -0.01964262       0.00796388
V        2.91683176       3.03072387       1.05468073      -0.08600252      -0.11640587       0.04729598
V        0.82467724       3.06414777       2.84070101      -0.13199702      -0.09957712      -0.13276187
V        3.59788533       3.90754085       3.72876138       0.08072324      -0.06099259       0.06654438
V        5.42086495       5.83413312       5.61190881       0.07447293       0.02930438      -0.05064433
6
Lattice="-0.266266223 4.09782291 3.693975554 3.640605552 -0.420820788 3.56164297 3.915125511 4.039886529 0.305326769" Properties=species:S:1:pos:R:3:forces:R:3 batch_id=T generation=8 composition=V6 config_type=C15_aa source_path=V-Cr-Ti-W-Zr/Fixed_Engrads/vcrtiwzr_fin_engrads/job_gen_6-2024-12-23/V/V6_C15_idx_3093 temperature=T date_processed=2025-01-03T17:40:31.723034 structure_type=T structure_index=3093 adversarial_step=T structure_id=8402 energy=-48.652819061279295 stress="0.17185286966833763 -0.008099787396423355 -0.004526292486017532 -0.008099787396423355 0.20352105115426236 0.0032937442298746097 -0.004526292486017532 0.0032937442298746097 0.15778716073997529" calculation_info="_JSON {\"calculation_id\": 8402, \"calculator\": \"vasp\", \"calculation_source_path\": \"\", \"error\": null, \"status\": \"completed\", \"gpu_count\": null, \"parameters\": {}, \"date_started\": null, \"gpu_memory_mb\": null, \"model_version\": null, \"date_completed\": null, \"runtime_seconds\": null}" parent_id=8402 step=15 variance=0.4570424556732178 loss=0.4570424556732178 pbc="T T T"
V        0.87087960       0.91627059       0.89542678       0.24185872       0.27340353       0.06380634
V        2.77918435       0.80105648       2.67782309      -0.17830916      -0.01943436       0.00742941
V        2.91797663       3.03168262       1.05385492      -0.08819415      -0.11844428       0.04836289
V        0.82570832       3.06548167       2.84190650      -0.13284041      -0.10349139      -0.13755579
V        3.59689455       3.90882707       3.72749177       0.08223097      -0.06228106       0.06820575
V        5.41984464       5.83508871       5.60976400       0.07525407       0.03024749      -0.05024862
6