8
Lattice="5.193543345 -0.068547173 0.068737976 -0.152894308 5.376584925 0.210596874 0.133825329 -0.322487021 5.324734719" Properties=species:S:1:pos:R:3:forces:R:3 batch_id=T generation=6 composition=V8 config_type=A15 source_path=V-Cr-Ti-W-Zr/Fixed_Engrads/vcrtiwzr_fin_engrads/job_gen_6-2024-12-23/V/V8_A15_idx_2971 temperature=T date_processed=2025-01-03T17:40:36.543007 structure_type=T structure_index=2971 adversarial_step=T structure_id=8477 energy=-66.49995 stress="0.1829990315634495 -0.005953232543886089 0.004675564418272157 -0.005953232543886089 0.18868135764523572 -0.004628522163990374 0.004675564418272157 -0.004628522163990374 0.1856430471763379" calculation_info="_JSON {\"calculation_id\": 8477, \"calculator\": \"vasp\", \"calculation_source_path\": \"\", \"error\": null, \"status\": \"completed\", \"gpu_count\": null, \"parameters\": {}, \"date_started\": null, \"gpu_memory_mb\": null, \"model_version\": null, \"date_completed\": null, \"runtime_seconds\": null}" pbc="T T T"
V        0.00000000       0.00000000       0.00000000       0.00000000       0.00000000       0.00000000
V        2.58724000       2.49278000       2.80203000       0.00000000       0.00000000       0.00000000
V        1.35576000       2.34867000       5.44722000      -0.01159000       0.01183100       0.01858300
V        3.81871000       2.63688000       0.15685000       0.01159000      -0.01183100      -0.01858300
V        0.02869000       1.18290000       2.71502000      -0.02426600      -0.02631400       0.00280600
V        5.14579000       3.80265000       2.88905000       0.02426600       0.02631400      -0.00280600
V        2.63023000      -0.11490000       1.36555000      -0.02473600      -0.00403200       0.03793400
V        2.69714000      -0.27614000       4.02792000       0.02473600       0.00403200      -0.03793400
8
Lattice="5.193543345 -0.068547173 0.068737976 -0.152894308 5.376584925 0.210596874 0.133825329 -0.322487021 5.324734719" Properties=species:S:1:pos:R:3:forces:R:3 batch_id=T generation=8 composition=V8 config_type=A15_aa source_path=V-Cr-Ti-W-Zr/Fixed_Engrads/vcrtiwzr_fin_engrads/job_gen_6-2024-12-23/V/V8_A15_idx_2971 temperature=T date_processed=2025-01-03T17:40:36.543007 structure_type=T structure_index=2971 adversarial_step=T structure_id=8477 energy=-66.47732696533203 stress="0.1829990315634495 -0.005953232543886089 0.004675564418272157 -0.005953232543886089 0.18868135764523572 -0.004628522163990374 0.004675564418272157 -0.004628522163990374 0.1856430471763379" calculation_info="_JSON {\"calculation_id\": 8477, \"calculator\": \"vasp\", \"calculation_source_path\": \"\", \"error\": null, \"status\": \"completed\", \"gpu_count\": null, \"parameters\": {}, \"date_started\": null, \"gpu_memory_mb\": null, \"model_version\": null, \"date_completed\": null, \"runtime_seconds\": null}" parent_id=8477 step=0 variance=0.361196368932724 loss=0.361196368932724 pbc="T T T"
V        0.00000000       0.00000000       0.00000000       0.00000156      -0.00000200      -0.00000207
V        2.58724000       2.49278000       2.80203000      -0.00000623      -0.00000204       0.00000569
V        1.35576000       2.34867000       5.44722000      -0.00851863      -0.01878368      -0.01985587
V        3.81871000       2.63688000       0.15685000       0.00853025       0.01878435       0.01985605
V        0.02869000       1.18290000       2.71502000       0.03743422      -0.00826532      -0.01566920
V        5.14579000       3.80265000       2.88905000      -0.03743853       0.00826366       0.01566353
V        2.63023000      -0.11490000       1.36555000       0.03135645       0.01156767       0.01819042
V        2.69714000      -0.27614000       4.02792000      -0.03135903      -0.01156265      -0.01818855
8
Lattice="5.193543345 -0.068547173 0.068737976 -0.152894308 5.376584925 0.210596874 0.133825329 -0.322487021 5.324734719" Properties=species:S:1:pos:R:3:forces:R:3 batch_id=T generation=8 composition=V8 config_type=A15_aa source_path=V-Cr-Ti-W-Zr/Fixed_Engrads/vcrtiwzr_fin_engrads/job_gen_6-2024-12-23/V/V8_A15_idx_2971 temperature=T date_processed=2025-01-03T17:40:36.543007 structure_type=T structure_index=2971 adversarial_step=T structure_id=8477 energy=-66.47662658691407 stress="0.1829990315634495 -0.005953232543886089 0.004675564418272157 -0.005953232543886089 0.18868135764523572 -0.004628522163990374 0.004675564418272157 -0.004628522163990374 0.1856430471763379" calculation_info="_JSON {\"calculation_id\": 8477, \"calculator\": \"vasp\", \"calculation_source_path\": \"\", \"error\": null, \"status\": \"completed\", \"gpu_count\": null, \"parameters\": {}, \"date_started\": null, \"gpu_memory_mb\": null, \"model_version\": null, \"date_completed\": null, \"runtime_seconds\": null}" parent_id=8477 step=1 variance=0.34858813881874084 loss=0.34858813881874084 pbc="T T T"
V        0.01000000      -0.01000000      -0.01000000      -0.01070041       0.00162703       0.01222790
V        2.59724000       2.50278000       2.79203000      -0.01344756      -0.00676524      -0.00142284
V        1.34576000       2.35867000       5.45722000       0.00186964      -0.02711711      -0.03058429
V        3.80871000       2.64688000       0.16685000       0.01886001       0.00976626       0.00916395
V        0.01869000       1.17290000       2.70502000       0.03657916       0.00559693      -0.01893972
V        5.13579000       3.79265000       2.87905000      -0.03637468       0.02365747       0.01249166
V        2.62023000      -0.12490000       1.35555000       0.03287840       0.00785204       0.02668678
V        2.68714000      -0.28614000       4.01792000      -0.02966456      -0.01461727      -0.00962348
8
Lattice="5.193543345 -0.068547173 0.068737976 -0.152894308 5.376584925 0.210596874 0.133825329 -0.322487021 5.324734719" Properties=species:S:1:pos:R:3:forces:R:3 batch_id=T generation=8 composition=V8 config_type=A15_aa source_path=V-Cr-Ti-W-Zr/Fixed_Engrads/vcrtiwzr_fin_engrads/job_gen_6-2024-12-23/V/V8_A15_idx_2971 temperature=T date_processed=2025-01-03T17:40:36.543007 structure_type=T structure_index=2971 adversarial_step=T structure_id=8477 energy=-66.47537841796876 stress="0.1829990315634495 -0.005953232543886089 0.004675564418272157 -0.005953232543886089 0.18868135764523572 -0.004628522163990374 0.004675564418272157 -0.004628522163990374 0.1856430471763379" calculation_info="_JSON {\"calculation_id\": 8477, \"calculator\": \"vasp\", \"calculation_source_path\": \"\", \"error\": null, \"status\": \"completed\", \"gpu_count\": null, \"parameters\": {}, \"date_started\": null, \"gpu_memory_mb\": null, \"model_version\": null, \"date_completed\": null, \"runtime_seconds\": null}" parent_id=8477 step=2 variance=0.3753814697265625 loss=0.3753814697265625 pbc="T T T"
V        0.01667836      -0.01672143      -0.01667680      -0.01799656       0.00307452       0.02051516
V        2.60395580       2.50945027       2.78529557      -0.02281429      -0.01152715      -0.00199462
V        1.33905138       2.36544686       5.46376627       0.00891862      -0.03248083      -0.03732020
V        3.80203931       2.65384847       0.17418843       0.02574932       0.00268847       0.00064703
V        0.01199409       1.16620179       2.69831616       0.03509108       0.01420007      -0.02116635
V        5.12907143       3.78595128       2.87235243      -0.03454671       0.03492971       0.01047667
V        2.61354069      -0.13161168       1.34880481       0.03405189       0.00524138       0.03255505
V        2.68043192      -0.29286022       4.01125830      -0.02845343      -0.01612614      -0.00371275
8
Lattice="5.193543345 -0.068547173 0.068737976 -0.152894308 5.376584925 0.210596874 0.133825329 -0.322487021 5.324734719" Properties=species:S:1:pos:R:3:forces:R:3 batch_id=T generation=8 composition=V8 config_type=A15_aa source_path=V-Cr-Ti-W-Zr/Fixed_Engrads/vcrtiwzr_fin_engrads/job_gen_6-2024-12-23/V/V8_A15_idx_2971 temperature=T date_processed=2025-01-03T17:40:36.543007 structure_type=T structure_index=2971 adversarial_step=T structure_id=8477 energy=-66.47393798828125 stress="0.1829990315634495 -0.005953232543886089 0.004675564418272157 -0.005953232543886089 0.18868135764523572 -0.004628522163990374 0.004675564418272157 -0.004628522163990374 0.1856430471763379" calculation_info="_JSON {\"calculation_id\": 8477, \"calculator\": \"vasp\", \"calculation_source_path\": \"\", \"error\": null, \"status\": \"completed\", \"gpu_count\": null, \"parameters\": {}, \"date_started\": null, \"gpu_memory_mb\": null, \"model_version\": null, \"date_completed\": null, \"runtime_seconds\": null}" parent_id=8477 step=3 variance=0.3738850951194763 loss=0.3738850951194763 pbc="T T T"
V        0.02182006      -0.02193471      -0.02182498      -0.02373024       0.00454288       0.02704894
V        2.60907716       2.51458506       2.78007092      -0.03038137      -0.01546431      -0.00206988
V        1.33387932       2.37091539       5.46874766       0.01431628      -0.03702490      -0.04214832
V        3.79690474       2.65926273       0.18051469       0.03110827      -0.00314254      -0.00726438
V        0.00682075       1.16103145       2.69312408       0.03346476       0.02048629      -0.02290641
V        5.12385839       3.78077697       2.86717370      -0.03238240       0.04424369       0.00901043
V        2.60837907      -0.13680683       1.34356472       0.03510475       0.00328128       0.03728152
V        2.67523173      -0.29807113       4.00614066      -0.02750004      -0.01692241       0.00104809
8
Lattice="5.193543345 -0.068547173 0.068737976 -0.152894308 5.376584925 0.210596874 0.133825329 -0.322487021 5.324734719" Properties=species:S:1:pos:R:3:forces:R:3 batch_id=T generation=8 composition=V8 config_type=A15_aa source_path=V-Cr-Ti-W-Zr/Fixed_Engrads/vcrtiwzr_fin_engrads/job_gen_6-2024-12-23/V/V8_A15_idx_2971 temperature=T date_processed=2025-01-03T17:40:36.543007 structure_type=T structure_index=2971 adversarial_step=T structure_id=8477 energy=-66.47243041992188 stress="0.1829990315634495 -0.005953232543886089 0.004675564418272157 -0.005953232543886089 0.18868135764523572 -0.004628522163990374 0.004675564418272157 -0.004628522163990374 0.1856430471763379" calculation_info="_JSON {\"calculation_id\": 8477, \"calculator\": \"vasp\", \"calculation_source_path\": \"\", \"error\": null, \"status\": \"completed\", \"gpu_count\": null, \"parameters\": {}, \"date_started\": null, \"gpu_memory_mb\": null, \"model_version\": null, \"date_completed\": null, \"runtime_seconds\": null}" parent_id=8477 step=4 variance=0.36222565174102783 loss=0.36222565174102783 pbc="T T T"
V        0.02601028      -0.02621740      -0.02603362      -0.02847947       0.00602641       0.03248409
V        2.61318010       2.51877288       2.77577730      -0.03684732      -0.01892406      -0.00179806
V        1.32967848       2.37562852       5.47273836       0.01859718      -0.04125657      -0.04582639
V        3.79270445       2.66363799       0.18615970       0.03557172      -0.00802672      -0.01478400
V        0.00258317       1.15681469       2.68886180       0.03185131       0.02538392      -0.02434210
V        5.11957005       3.77653431       2.86292759      -0.03005567       0.05232288       0.00790982
V        2.60415869      -0.14106705       1.33926557       0.03607402       0.00178021       0.04124879
V        2.67095644      -0.30235302       4.00196700      -0.02671176      -0.01730610       0.00510795
8
Lattice="5.193543345 -0.068547173 0.068737976 -0.152894308 5.376584925 0.210596874 0.133825329 -0.322487021 5.324734719" Properties=species:S:1:pos:R:3:forces:R:3 batch_id=T generation=8 composition=V8 config_type=A15_aa source_path=V-Cr-Ti-W-Zr/Fixed_Engrads/vcrtiwzr_fin_engrads/job_gen_6-2024-12-23/V/V8_A15_idx_2971 temperature=T date_processed=2025-01-03T17:40:36.543007 structure_type=T structure_index=2971 adversarial_step=T structure_id=8477 energy=-66.47091369628906 stress="0.1829990315634495 -0.005953232543886089 0.004675564418272157 -0.005953232543886089 0.18868135764523572 -0.004628522163990374 0.004675564418272157 -0.004628522163990374 0.1856430471763379" calculation_info="_JSON {\"calculation_id\": 8477, \"calculator\": \"vasp\", \"calculation_source_path\": \"\", \"error\": null, \"status\": \"completed\", \"gpu_count\": null, \"parameters\": {}, \"date_started\": null, \"gpu_memory_mb\": null, \"model_version\": null, \"date_completed\": null, \"runtime_seconds\": null}" parent_id=8477 step=5 variance=0.3459806442260742 loss=0.3459806442260742 pbc="T T T"
V        0.02953016      -0.02984309      -0.02958327      -0.03252751       0.00749522       0.03711127
V        2.61654205       2.52230426       2.77213891      -0.04251051      -0.02206041      -0.00128973
V        1.32617311       2.37977260       5.47601723       0.02204871      -0.04523412      -0.04879444
V        3.78915315       2.66726939       0.19118432       0.03941697      -0.01221925      -0.02184272
V       -0.00100125       1.15327573       2.68525028       0.03031865       0.02932718      -0.02556307
V        5.11593010       3.77294174       2.85933467      -0.02767260       0.05948591       0.00708939
V        2.60059765      -0.14467303       1.33563721       0.03695422       0.00062276       0.04463054
V        2.66732707      -0.30598668       3.99844899      -0.02602789      -0.01741728       0.00865881
8
Lattice="5.193543345 -0.068547173 0.068737976 -0.152894308 5.376584925 0.210596874 0.133825329 -0.322487021 5.324734719" Properties=species:S:1:pos:R:3:forces:R:3 batch_id=T generation=8 composition=V8 config_type=A15_aa source_path=V-Cr-Ti-W-Zr/Fixed_Engrads/vcrtiwzr_fin_engrads/job_gen_6-2024-12-23/V/V8_A15_idx_2971 temperature=T date_processed=2025-01-03T17:40:36.543007 structure_type=T structure_index=2971 adversarial_step=T structure_id=8477 energy=-66.46942291259765 stress="0.1829990315634495 -0.005953232543886089 0.004675564418272157 -0.005953232543886089 0.18868135764523572 -0.004628522163990374 0.004675564418272157 -0.004628522163990374 0.1856430471763379" calculation_info="_JSON {\"calculation_id\": 8477, \"calculator\": \"vasp\", \"calculation_source_path\": \"\", \"error\": null, \"status\": \"completed\", \"gpu_count\": null, \"parameters\": {}, \"date_started\": null, \"gpu_memory_mb\": null, \"model_version\": null, \"date_completed\": null, \"runtime_seconds\": null}" parent_id=8477 step=6 variance=0.3293325901031494 loss=0.3293325901031494 pbc="T T T"
V        0.03254222      -0.03296813      -0.03263568      -0.03602648       0.00892502       0.04111280
V        2.61934847       2.52534654       2.76899519      -0.04755996      -0.02496217      -0.00061382
V        1.32319686       2.38339043       5.47872134       0.02484748      -0.04885105      -0.05118014
V        3.78608824       2.67036144       0.19570397       0.04280199      -0.01597349      -0.02851789
V       -0.00409518       1.15025430       2.68212953       0.02892268       0.03255351      -0.02662421
V        5.11278135       3.76983900       2.85623407      -0.02531594       0.06590760       0.00648016
V        2.59753424      -0.14778687       1.33252230       0.03776587      -0.00025506       0.04753973
V        2.66418557      -0.30913415       3.99542107      -0.02543566      -0.01734443       0.01180332
8
Lattice="5.193543345 -0.068547173 0.068737976 -0.152894308 5.376584925 0.210596874 0.133825329 -0.322487021 5.324734719" Properties=species:S:1:pos:R:3:forces:R:3 batch_id=T generation=8 composition=V8 config_type=A15_aa source_path=V-Cr-Ti-W-Zr/Fixed_Engrads/vcrtiwzr_fin_engrads/job_gen_6-2024-12-23/V/V8_A15_idx_2971 temperature=T date_processed=2025-01-03T17:40:36.543007 structure_type=T structure_index=2971 adversarial_step=T structure_id=8477 energy=-66.46797790527344 stress="0.1829990315634495 -0.005953232543886089 0.004675564418272157 -0.005953232543886089 0.18868135764523572 -0.004628522163990374 0.004675564418272157 -0.004628522163990374 0.1856430471763379" calculation_info="_JSON {\"calculation_id\": 8477, \"calculator\": \"vasp\", \"calculation_source_path\": \"\", \"error\": null, \"status\": \"completed\", \"gpu_count\": null, \"parameters\": {}, \"date_started\": null, \"gpu_memory_mb\": null, \"model_version\": null, \"date_completed\": null, \"runtime_seconds\": null}" parent_id=8477 step=7 variance=0.3148394525051117 loss=0.3148394525051117 pbc="T T T"
V        0.03515261      -0.03569635      -0.03529498      -0.03906473       0.01031655       0.04462345
V        2.62174179       2.52800823       2.76624279      -0.05215152      -0.02768457       0.00018666
V        1.32063429       2.38647505       5.48092529       0.02714003      -0.05193874      -0.05294665
V        3.78340620       2.67307082       0.19989615       0.04585170      -0.01953821      -0.03503327
V       -0.00680241       1.14764348       2.67939592       0.02767861       0.03521278      -0.02757930
V        5.11002285       3.76712473       2.85352269      -0.02305354       0.07170187       0.00602979
V        2.59486517      -0.15051161       1.32981732       0.03854528      -0.00092374       0.05008994
V        2.66143163      -0.31189855       3.99277983      -0.02494587      -0.01714592       0.01462947
8
Lattice="5.193543345 -0.068547173 0.068737976 -0.152894308 5.376584925 0.210596874 0.133825329 -0.322487021 5.324734719" Properties=species:S:1:pos:R:3:forces:R:3 batch_id=T generation=8 composition=V8 config_type=A15_aa source_path=V-Cr-Ti-W-Zr/Fixed_Engrads/vcrtiwzr_fin_engrads/job_gen_6-2024-12-23/V/V8_A15_idx_2971 temperature=T date_processed=2025-01-03T17:40:36.543007 structure_type=T structure_index=2971 adversarial_step=T structure_id=8477 energy=-66.4666015625 stress="0.1829990315634495 -0.005953232543886089 0.004675564418272157 -0.005953232543886089 0.18868135764523572 -0.004628522163990374 0.004675564418272157 -0.004628522163990374 0.1856430471763379" calculation_info="_JSON {\"calculation_id\": 8477, \"calculator\": \"vasp\", \"calculation_source_path\": \"\", \"error\": null, \"status\": \"completed\", \"gpu_count\": null, \"parameters\": {}, \"date_started\": null, \"gpu_memory_mb\": null, \"model_version\": null, \"date_completed\": null, \"runtime_seconds\": null}" parent_id=8477 step=8 variance=0.3033575415611267 loss=0.3033575415611267 pbc="T T T"
V        0.03743614      -0.03809794      -0.03763359      -0.04170802       0.01166093       0.04774487
V        2.62382302       2.53036074       2.76381161      -0.05637880      -0.03026504       0.00108006
V        1.31840251       2.38902778       5.48270989       0.02902726      -0.05440452      -0.05413582
V        3.78103688       2.67549956       0.20385360       0.04863196      -0.02306945      -0.04146687
V       -0.00919410       1.14536710       2.67697925       0.02659721       0.03741058      -0.02847111
V        5.10758467       3.76473043       2.85112865      -0.02091287       0.07695381       0.00570077
V        2.59251853      -0.15291912       1.32744667       0.03929654      -0.00142254       0.05234810
V        2.65899648      -0.31435076       3.99045486      -0.02455323      -0.01686387       0.01719999
8
Lattice="5.193543345 -0.068547173 0.068737976 -0.152894308 5.376584925 0.210596874 0.133825329 -0.322487021 5.324734719" Properties=species:S:1:pos:R:3:forces:R:3 batch_id=T generation=8 composition=V8 config_type=A15_aa source_path=V-Cr-Ti-W-Zr/Fixed_Engrads/vcrtiwzr_fin_engrads/job_gen_6-2024-12-23/V/V8_A15_idx_2971 temperature=T date_processed=2025-01-03T17:40:36.543007 structure_type=T structure_index=2971 adversarial_step=T structure_id=8477 energy=-66.4652816772461 stress="0.1829990315634495 -0.005953232543886089 0.004675564418272157 -0.005953232543886089 0.18868135764523572 -0.004628522163990374 0.004675564418272157 -0.004628522163990374 0.1856430471763379" calculation_info="_JSON {\"calculation_id\": 8477, \"calculator\": \"vasp\", \"calculation_source_path\": \"\", \"error\": null, \"status\": \"completed\", \"gpu_count\": null, \"parameters\": {}, \"date_started\": null, \"gpu_memory_mb\": null, \"model_version\": null, \"date_completed\": null, \"runtime_seconds\": null}" parent_id=8477 step=9 variance=0.29470300674438477 loss=0.29470300674438477 pbc="T T T"
V        0.03944897      -0.04022590      -0.03970492      -0.04399816       0.01296219       0.05054443
V        2.62566926       2.53245619       2.76164916      -0.06033377      -0.03272286       0.00204847
V        1.31644188       2.39108823       5.48413030       0.03059132      -0.05623065      -0.05475162
V        3.77892980       2.67771875       0.20766816       0.05120115      -0.02664609      -0.04792440
V       -0.01132215       1.14336846       2.67482705       0.02566985       0.03922754      -0.02931381
V        5.10541550       3.76260554       2.84900006      -0.01890277       0.08172670       0.00546303
V        2.59044160      -0.15506075       1.32535467       0.04002886      -0.00178956       0.05438193
V        2.65682951      -0.31654219       3.98839574      -0.02425648      -0.01652718       0.01955200
8
Lattice="5.193543345 -0.068547173 0.068737976 -0.152894308 5.376584925 0.210596874 0.133825329 -0.322487021 5.324734719" Properties=species:S:1:pos:R:3:forces:R:3 batch_id=T generation=8 composition=V8 config_type=A15_aa source_path=V-Cr-Ti-W-Zr/Fixed_Engrads/vcrtiwzr_fin_engrads/job_gen_6-2024-12-23/V/V8_A15_idx_2971 temperature=T date_processed=2025-01-03T17:40:36.543007 structure_type=T structure_index=2971 adversarial_step=T structure_id=8477 energy=-66.46403045654297 stress="0.1829990315634495 -0.005953232543886089 0.004675564418272157 -0.005953232543886089 0.18868135764523572 -0.004628522163990374 0.004675564418272157 -0.004628522163990374 0.1856430471763379" calculation_info="_JSON {\"calculation_id\": 8477, \"calculator\": \"vasp\", \"calculation_source_path\": \"\", \"error\": null, \"status\": \"completed\", \"gpu_count\": null, \"parameters\": {}, \"date_started\": null, \"gpu_memory_mb\": null, \"model_version\": null, \"date_completed\": null, \"runtime_seconds\": null}" parent_id=8477 step=10 variance=0.28824907541275024 loss=0.28824907541275024 pbc="T T T"
V        0.04123104      -0.04211960      -0.04154966      -0.04597099       0.01421104       0.05307639
V        2.62732685       2.53433115       2.75971527      -0.06405757      -0.03507233       0.00307771
V        1.31470854       2.39272037       5.48523477       0.03188305      -0.05748532      -0.05484021
V        3.77704569       2.67976216       0.21137368       0.05359339      -0.03026299      -0.05442757
V       -0.01322648       1.14160329       2.67289977       0.02487807       0.04072658      -0.03012837
V        5.10347593       3.76071173       2.84709750      -0.01701869       0.08608671       0.00529395
V        2.58859408      -0.15697556       1.32349876       0.04074423      -0.00205062       0.05622055
V        2.65489093      -0.31851173       3.98656375      -0.02405153      -0.01615307       0.02172768
8
Lattice="5.193543345 -0.068547173 0.068737976 -0.152894308 5.376584925 0.210596874 0.133825329 -0.322487021 5.324734719" Properties=species:S:1:pos:R:3:forces:R:3 batch_id=T generation=8 composition=V8 config_type=A15_aa source_path=V-Cr-Ti-W-Zr/Fixed_Engrads/vcrtiwzr_fin_engrads/job_gen_6-2024-12-23/V/V8_A15_idx_2971 temperature=T date_processed=2025-01-03T17:40:36.543007 structure_type=T structure_index=2971 adversarial_step=T structure_id=8477 energy=-66.46283264160157 stress="0.1829990315634495 -0.005953232543886089 0.004675564418272157 -0.005953232543886089 0.18868135764523572 -0.004628522163990374 0.004675564418272157 -0.004628522163990374 0.1856430471763379" calculation_info="_JSON {\"calculation_id\": 8477, \"calculator\": \"vasp\", \"calculation_source_path\": \"\", \"error\": null, \"status\": \"completed\", \"gpu_count\": null, \"parameters\": {}, \"date_started\": null, \"gpu_memory_mb\": null, \"model_version\": null, \"date_completed\": null, \"runtime_seconds\": null}" parent_id=8477 step=11 variance=0.2834852337837219 loss=0.2834852337837219 pbc="T T T"
V        0.04281549      -0.04381257      -0.04319957      -0.04766479       0.01540475       0.05537835
V        2.62883358       2.53601732       2.75797908      -0.06759260      -0.03731381       0.00414734
V        1.31316980       2.39398896       5.48607196       0.03293929      -0.05824029      -0.05445833
V        3.77535391       2.68165623       0.21499140       0.05584830      -0.03390203      -0.06097438
V       -0.01493766       1.14003850       2.67116667       0.02420104       0.04195537      -0.03091356
V        5.10173520       3.75901862       2.84539045      -0.01525012       0.09008367       0.00518173
V        2.58694467      -0.15869423       1.32184671       0.04143930      -0.00223129       0.05789043
V        2.65315052      -0.32028945       3.98492805      -0.02392040      -0.01575637       0.02374847
8
Lattice="5.193543345 -0.068547173 0.068737976 -0.152894308 5.376584925 0.210596874 0.133825329 -0.322487021 5.324734719" Properties=species:S:1:pos:R:3:forces:R:3 batch_id=T generation=8 composition=V8 config_type=A15_aa source_path=V-Cr-Ti-W-Zr/Fixed_Engrads/vcrtiwzr_fin_engrads/job_gen_6-2024-12-23/V/V8_A15_idx_2971 temperature=T date_processed=2025-01-03T17:40:36.543007 structure_type=T structure_index=2971 adversarial_step=T structure_id=8477 energy=-66.4616943359375 stress="0.1829990315634495 -0.005953232543886089 0.004675564418272157 -0.005953232543886089 0.18868135764523572 -0.004628522163990374 0.004675564418272157 -0.004628522163990374 0.1856430471763379" calculation_info="_JSON {\"calculation_id\": 8477, \"calculator\": \"vasp\", \"calculation_source_path\": \"\", \"error\": null, \"status\": \"completed\", \"gpu_count\": null, \"parameters\": {}, \"date_started\": null, \"gpu_memory_mb\": null, \"model_version\": null, \"date_completed\": null, \"runtime_seconds\": null}" parent_id=8477 step=12 variance=0.28004521131515503 loss=0.28004521131515503 pbc="T T T"
V        0.04422643      -0.04533097      -0.04468099      -0.04910506       0.01654547       0.05747669
V        2.63020704       2.53753769       2.75641423      -0.07096028      -0.03946359       0.00525217
V        1.31179942       2.39492614       5.48666968       0.03380322      -0.05853121      -0.05365150
V        3.77382894       2.68341728       0.21852956       0.05798177      -0.03755906      -0.06755470
V       -0.01648124       1.13864737       2.66960303       0.02363163       0.04295019      -0.03167561
V        5.10016737       3.75750058       2.84385348      -0.01358984       0.09375308       0.00510911
V        2.58546715      -0.16024221       1.32037200       0.04211043      -0.00234690       0.05941135
V        2.65158234      -0.32190072       3.98346257      -0.02387183      -0.01534800       0.02563257
8
Lattice="5.193543345 -0.068547173 0.068737976 -0.152894308 5.376584925 0.210596874 0.133825329 -0.322487021 5.324734719" Properties=species:S:1:pos:R:3:forces:R:3 batch_id=T generation=8 composition=V8 config_type=A15_aa source_path=V-Cr-Ti-W-Zr/Fixed_Engrads/vcrtiwzr_fin_engrads/job_gen_6-2024-12-23/V/V8_A15_idx_2971 temperature=T date_processed=2025-01-03T17:40:36.543007 structure_type=T structure_index=2971 adversarial_step=T structure_id=8477 energy=-66.46061553955079 stress="0.1829990315634495 -0.005953232543886089 0.004675564418272157 -0.005953232543886089 0.18868135764523572 -0.004628522163990374 0.004675564418272157 -0.004628522163990374 0.1856430471763379" calculation_info="_JSON {\"calculation_id\": 8477, \"calculator\": \"vasp\", \"calculation_source_path\": \"\", \"error\": null, \"status\": \"completed\", \"gpu_count\": null, \"parameters\": {}, \"date_started\": null, \"gpu_memory_mb\": null, \"model_version\": null, \"date_completed\": null, \"runtime_seconds\": null}" parent_id=8477 step=13 variance=0.2776491045951843 loss=0.2776491045951843 pbc="T T T"
V        0.04548519      -0.04669493      -0.04601473      -0.05031627       0.01762397       0.05939274
V        2.63145735       2.53891178       2.75499990      -0.07416276      -0.04151880       0.00637418
V        1.31057826       2.39558277       5.48706351       0.03447952      -0.05843063      -0.05249042
V        3.77244988       2.68505936       0.22197439       0.06000166      -0.04120820      -0.07412075
V       -0.01787782       1.13740788       2.66818792       0.02316380       0.04374756      -0.03241334
V        5.09875151       3.75613601       2.84246578      -0.01202567       0.09713266       0.00506809
V        2.58414045      -0.16163997       1.31905336       0.04274745      -0.00241307       0.06079460
V        2.65016564      -0.32336574       3.98214572      -0.02388771      -0.01493356       0.02739492
8
Lattice="5.193543345 -0.068547173 0.068737976 -0.152894308 5.376584925 0.210596874 0.133825329 -0.322487021 5.324734719" Properties=species:S:1:pos:R:3:forces:R:3 batch_id=T generation=8 composition=V8 config_type=A15_aa source_path=V-Cr-Ti-W-Zr/Fixed_Engrads/vcrtiwzr_fin_engrads/job_gen_6-2024-12-23/V/V8_A15_idx_2971 temperature=T date_processed=2025-01-03T17:40:36.543007 structure_type=T structure_index=2971 adversarial_step=T structure_id=8477 energy=-66.45958404541015 stress="0.1829990315634495 -0.005953232543886089 0.004675564418272157 -0.005953232543886089 0.18868135764523572 -0.004628522163990374 0.004675564418272157 -0.004628522163990374 0.1856430471763379" calculation_info="_JSON {\"calculation_id\": 8477, \"calculator\": \"vasp\", \"calculation_source_path\": \"\", \"error\": null, \"status\": \"completed\", \"gpu_count\": null, \"parameters\": {}, \"date_started\": null, \"gpu_memory_mb\": null, \"model_version\": null, \"date_completed\": null, \"runtime_seconds\": null}" parent_id=8477 step=14 variance=0.276113897562027 loss=0.276113897562027 pbc="T T T"