6
Lattice="-0.05773931 3.656310282 3.690614486 3.700523248 0.055721916 3.707500434 3.72397022 3.744249909 -0.003862619" Properties=species:S:1:pos:R:3:forces:R:3 generation=6 composition=W6 config_type=C15 source_path=V-Cr-Ti-W-Zr/Fixed_Engrads/vcrtiwzr_fin_engrads/job_gen_6-2024-12-23/W/W6_C15_idx_3028 date_processed=2025-02-12T16:53:55.796760 structure_index=3028 structure_id=21679 energy=-74.954384 stress="0.0145805772576656 0.01026282607456208 -0.00636285654630868 0.01026282607456208 0.007109659354729739 -0.005253359642582546 -0.00636285654630868 -0.005253359642582546 0.010016436260308712" calculation_info="_JSON {\"calculation_id\": 21678, \"calculator\": \"vasp\", \"calculation_source_path\": \"\", \"error\": null, \"status\": \"completed\", \"gpu_count\": null, \"parameters\": {}, \"date_started\": null, \"gpu_memory_mb\": null, \"model_version\": null, \"date_completed\": null, \"runtime_seconds\": null}" pbc="T T T"
W        0.92084000       0.93204000       0.92428000       0.00000000       0.00000000       0.00000000
W        2.77111000       0.95990000       2.77803000       0.00000000       0.00000000       0.00000000
W        2.78283000       2.80416000       0.92235000       0.00000000       0.00000000       0.00000000
W        0.89197000       2.76019000       2.76959000       0.00000000       0.00000000       0.00000000
W        3.68338000       3.72814000       3.69713000       0.01308300       0.02098600      -0.03183200
W        5.52507000       5.59221000       5.54569000      -0.01308300      -0.02098600       0.03183200
6
Lattice="-0.05773931 3.656310282 3.690614486 3.700523248 0.055721916 3.707500434 3.72397022 3.744249909 -0.003862619" Properties=species:S:1:pos:R:3:forces:R:3 generation=8 composition=W6 config_type=C15_aa source_path=V-Cr-Ti-W-Zr/Fixed_Engrads/vcrtiwzr_fin_engrads/job_gen_6-2024-12-23/W/W6_C15_idx_3028 date_processed=2025-02-12T16:53:55.796760 structure_index=3028 structure_id=21679 energy=-74.90685424804687 stress="0.0145805772576656 0.01026282607456208 -0.00636285654630868 0.01026282607456208 0.007109659354729739 -0.005253359642582546 -0.00636285654630868 -0.005253359642582546 0.010016436260308712" calculation_info="_JSON {\"calculation_id\": 21678, \"calculator\": \"vasp\", \"calculation_source_path\": \"\", \"error\": null, \"status\": \"completed\", \"gpu_count\": null, \"parameters\": {}, \"date_started\": null, \"gpu_memory_mb\": null, \"model_version\": null, \"date_completed\": null, \"runtime_seconds\": null}" parent_id=21679 step=0 variance=0.20656947791576385 loss=0.20656947791576385 pbc="T T T"
W        0.92084000       0.93204000       0.92428000       0.00008766      -0.00005302       0.00004874
W        2.77111000       0.95990000       2.77803000      -0.00010100      -0.00001695      -0.00001496
W        2.78283000       2.80416000       0.92235000      -0.00002777       0.00002988       0.00002017
W        0.89197000       2.76019000       2.76959000       0.00011427      -0.00001804       0.00000054
W        3.68338000       3.72814000       3.69713000       0.00720454       0.01555516      -0.02113743
W        5.52507000       5.59221000       5.54569000      -0.00727781      -0.01549699       0.02108288
6
Lattice="-0.05773931 3.656310282 3.690614486 3.700523248 0.055721916 3.707500434 3.72397022 3.744249909 -0.003862619" Properties=species:S:1:pos:R:3:forces:R:3 generation=8 composition=W6 config_type=C15_aa source_path=V-Cr-Ti-W-Zr/Fixed_Engrads/vcrtiwzr_fin_engrads/job_gen_6-2024-12-23/W/W6_C15_idx_3028 date_processed=2025-02-12T16:53:55.796760 structure_index=3028 structure_id=21679 energy=-74.90367584228515 stress="0.0145805772576656 0.01026282607456208 -0.00636285654630868 0.01026282607456208 0.007109659354729739 -0.005253359642582546 -0.00636285654630868 -0.005253359642582546 0.010016436260308712" calculation_info="_JSON {\"calculation_id\": 21678, \"calculator\": \"vasp\", \"calculation_source_path\": \"\", \"error\": null, \"status\": \"completed\", \"gpu_count\": null, \"parameters\": {}, \"date_started\": null, \"gpu_memory_mb\": null, \"model_version\": null, \"date_completed\": null, \"runtime_seconds\": null}" parent_id=21679 step=1 variance=0.0064310734160244465 loss=0.0064310734160244465 pbc="T T T"
W        0.93084000       0.94204000       0.93428000       0.03282678      -0.02307424      -0.02542127
W        2.78111000       0.96990000       2.78803000      -0.00100905      -0.05648841      -0.05730540
W        2.79283000       2.81416000       0.93235000       0.00072347      -0.05715798      -0.05831807
W        0.90197000       2.77019000       2.77959000      -0.03241931      -0.02812603      -0.02387342
W        3.69338000       3.73814000       3.68713000       0.00618713      -0.01464349       0.17438853
W        5.53507000       5.58221000       5.55569000      -0.00630904       0.17949024      -0.00947036
6
Lattice="-0.05773931 3.656310282 3.690614486 3.700523248 0.055721916 3.707500434 3.72397022 3.744249909 -0.003862619" Properties=species:S:1:pos:R:3:forces:R:3 generation=8 composition=W6 config_type=C15_aa source_path=V-Cr-Ti-W-Zr/Fixed_Engrads/vcrtiwzr_fin_engrads/job_gen_6-2024-12-23/W/W6_C15_idx_3028 date_processed=2025-02-12T16:53:55.796760 structure_index=3028 structure_id=21679 energy=-74.89731292724609 stress="0.0145805772576656 0.01026282607456208 -0.00636285654630868 0.01026282607456208 0.007109659354729739 -0.005253359642582546 -0.00636285654630868 -0.005253359642582546 0.010016436260308712" calculation_info="_JSON {\"calculation_id\": 21678, \"calculator\": \"vasp\", \"calculation_source_path\": \"\", \"error\": null, \"status\": \"completed\", \"gpu_count\": null, \"parameters\": {}, \"date_started\": null, \"gpu_memory_mb\": null, \"model_version\": null, \"date_completed\": null, \"runtime_seconds\": null}" parent_id=21679 step=2 variance=0.004681141581386328 loss=0.004681141581386328 pbc="T T T"
W        0.93756381       0.94874564       0.94098271       0.05362269      -0.03743444      -0.04316476
W        2.78781104       0.97657529       2.79472699      -0.00213376      -0.09228504      -0.09378827
W        2.79953296       2.82085688       0.93904306       0.00059562      -0.09587507      -0.09810972
W        0.90865913       2.77689871       2.78629819      -0.05410844      -0.04773454      -0.03957353
W        3.69981699       3.74478461       3.68056751       0.00811504      -0.03343331       0.30293375
W        5.54177486       5.57576429       5.56228806      -0.00609111       0.30676240      -0.02829748
6
Lattice="-0.05773931 3.656310282 3.690614486 3.700523248 0.055721916 3.707500434 3.72397022 3.744249909 -0.003862619" Properties=species:S:1:pos:R:3:forces:R:3 generation=8 composition=W6 config_type=C15_aa source_path=V-Cr-Ti-W-Zr/Fixed_Engrads/vcrtiwzr_fin_engrads/job_gen_6-2024-12-23/W/W6_C15_idx_3028 date_processed=2025-02-12T16:53:55.796760 structure_index=3028 structure_id=21679 energy=-74.89012298583984 stress="0.0145805772576656 0.01026282607456208 -0.00636285654630868 0.01026282607456208 0.007109659354729739 -0.005253359642582546 -0.00636285654630868 -0.005253359642582546 0.010016436260308712" calculation_info="_JSON {\"calculation_id\": 21678, \"calculator\": \"vasp\", \"calculation_source_path\": \"\", \"error\": null, \"status\": \"completed\", \"gpu_count\": null, \"parameters\": {}, \"date_started\": null, \"gpu_memory_mb\": null, \"model_version\": null, \"date_completed\": null, \"runtime_seconds\": null}" parent_id=21679 step=3 variance=0.004321350250393152 loss=0.004321350250393152 pbc="T T T"
W        0.94277268       0.95392894       0.94616322       0.06934845      -0.04806376      -0.05717179
W        2.79299179       0.98172417       2.79990262      -0.00321388      -0.11893527      -0.12106486
W        2.80471588       2.82603210       0.94421304       0.00031720      -0.12624303      -0.12926875
W        0.91382429       2.78208992       2.79148811      -0.07072461      -0.06345160      -0.05149009
W        3.70472420       3.74991113       3.67551916       0.01026713      -0.04741814       0.40130591
W        5.54695636       5.57082614       5.56736974      -0.00599449       0.40411186      -0.04231051
6
Lattice="-0.05773931 3.656310282 3.690614486 3.700523248 0.055721916 3.707500434 3.72397022 3.744249909 -0.003862619" Properties=species:S:1:pos:R:3:forces:R:3 generation=8 composition=W6 config_type=C15_aa source_path=V-Cr-Ti-W-Zr/Fixed_Engrads/vcrtiwzr_fin_engrads/job_gen_6-2024-12-23/W/W6_C15_idx_3028 date_processed=2025-02-12T16:53:55.796760 structure_index=3028 structure_id=21679 energy=-74.88277435302734 stress="0.0145805772576656 0.01026282607456208 -0.00636285654630868 0.01026282607456208 0.007109659354729739 -0.005253359642582546 -0.00636285654630868 -0.005253359642582546 0.010016436260308712" calculation_info="_JSON {\"calculation_id\": 21678, \"calculator\": \"vasp\", \"calculation_source_path\": \"\", \"error\": null, \"status\": \"completed\", \"gpu_count\": null, \"parameters\": {}, \"date_started\": null, \"gpu_memory_mb\": null, \"model_version\": null, \"date_completed\": null, \"runtime_seconds\": null}" parent_id=21679 step=4 variance=0.004187487065792084 loss=0.004187487065792084 pbc="T T T"
W        0.94704701       0.95817312       0.95040538       0.08200032      -0.05646339      -0.06879091
W        2.79723624       0.98593355       2.80414140      -0.00427042      -0.14008930      -0.14279988
W        2.80896247       2.83027037       0.94844516      -0.00003134      -0.15143034      -0.15504664
W        0.91805143       2.78634615       2.79574252      -0.08425964      -0.07674615      -0.06112136
W        3.70869453       3.75410538       3.67139529       0.01250315      -0.05852265       0.48120132
W        5.55119753       5.56679590       5.57152254      -0.00594212       0.48325172      -0.05344244
6
Lattice="-0.05773931 3.656310282 3.690614486 3.700523248 0.055721916 3.707500434 3.72397022 3.744249909 -0.003862619" Properties=species:S:1:pos:R:3:forces:R:3 generation=8 composition=W6 config_type=C15_aa source_path=V-Cr-Ti-W-Zr/Fixed_Engrads/vcrtiwzr_fin_engrads/job_gen_6-2024-12-23/W/W6_C15_idx_3028 date_processed=2025-02-12T16:53:55.796760 structure_index=3028 structure_id=21679 energy=-74.87554779052735 stress="0.0145805772576656 0.01026282607456208 -0.00636285654630868 0.01026282607456208 0.007109659354729739 -0.005253359642582546 -0.00636285654630868 -0.005253359642582546 0.010016436260308712" calculation_info="_JSON {\"calculation_id\": 21678, \"calculator\": \"vasp\", \"calculation_source_path\": \"\", \"error\": null, \"status\": \"completed\", \"gpu_count\": null, \"parameters\": {}, \"date_started\": null, \"gpu_memory_mb\": null, \"model_version\": null, \"date_completed\": null, \"runtime_seconds\": null}" parent_id=21679 step=5 variance=0.004126261454075575 loss=0.004126261454075575 pbc="T T T"
W        0.95066548       0.96175851       0.95398956       0.09252834      -0.06332073      -0.07868548
W        2.80082449       0.98948526       2.80772374      -0.00529037      -0.15746531      -0.16073468
W        2.81255269       2.83385204       0.95201996      -0.00041988      -0.17293739      -0.17698893
W        0.92162148       2.78994694       2.79934113      -0.09562114      -0.08831334      -0.06919044
W        3.71201544       3.75764860       3.66791584       0.01471371      -0.06766095       0.54822588
W        5.55477949       5.56339840       5.57502877      -0.00591050       0.54969770      -0.06262634
6
Lattice="-0.05773931 3.656310282 3.690614486 3.700523248 0.055721916 3.707500434 3.72397022 3.744249909 -0.003862619" Properties=species:S:1:pos:R:3:forces:R:3 generation=8 composition=W6 config_type=C15_aa source_path=V-Cr-Ti-W-Zr/Fixed_Engrads/vcrtiwzr_fin_engrads/job_gen_6-2024-12-23/W/W6_C15_idx_3028 date_processed=2025-02-12T16:53:55.796760 structure_index=3028 structure_id=21679 energy=-74.86857147216797 stress="0.0145805772576656 0.01026282607456208 -0.00636285654630868 0.01026282607456208 0.007109659354729739 -0.005253359642582546 -0.00636285654630868 -0.005253359642582546 0.010016436260308712" calculation_info="_JSON {\"calculation_id\": 21678, \"calculator\": \"vasp\", \"calculation_source_path\": \"\", \"error\": null, \"status\": \"completed\", \"gpu_count\": null, \"parameters\": {}, \"date_started\": null, \"gpu_memory_mb\": null, \"model_version\": null, \"date_completed\": null, \"runtime_seconds\": null}" parent_id=21679 step=6 variance=0.00409514969214797 loss=0.00409514969214797 pbc="T T T"
W        0.95378878       0.96484620       0.95707709       0.10147347      -0.06903517      -0.08723702
W        2.80391777       0.99254096       2.81081103      -0.00631708      -0.17205139      -0.17587698
W        2.81564784       2.83693848       0.95509908      -0.00085147      -0.19165784      -0.19601583
W        0.92469602       2.79305324       2.80244496      -0.10535828      -0.09856544      -0.07611343
W        3.71484265       3.76069994       3.66491853       0.01694813      -0.07534210       0.60562354
W        5.55786386       5.56047292       5.57804801      -0.00589457       0.60665196      -0.07038034
6
Lattice="-0.05773931 3.656310282 3.690614486 3.700523248 0.055721916 3.707500434 3.72397022 3.744249909 -0.003862619" Properties=species:S:1:pos:R:3:forces:R:3 generation=8 composition=W6 config_type=C15_aa source_path=V-Cr-Ti-W-Zr/Fixed_Engrads/vcrtiwzr_fin_engrads/job_gen_6-2024-12-23/W/W6_C15_idx_3028 date_processed=2025-02-12T16:53:55.796760 structure_index=3028 structure_id=21679 energy=-74.86192169189454 stress="0.0145805772576656 0.01026282607456208 -0.00636285654630868 0.01026282607456208 0.007109659354729739 -0.005253359642582546 -0.00636285654630868 -0.005253359642582546 0.010016436260308712" calculation_info="_JSON {\"calculation_id\": 21678, \"calculator\": \"vasp\", \"calculation_source_path\": \"\", \"error\": null, \"status\": \"completed\", \"gpu_count\": null, \"parameters\": {}, \"date_started\": null, \"gpu_memory_mb\": null, \"model_version\": null, \"date_completed\": null, \"runtime_seconds\": null}" parent_id=21679 step=7 variance=0.004079898353666067 loss=0.004079898353666067 pbc="T T T"
W        0.95652034       0.96754027       0.95977181       0.10916611      -0.07385858      -0.09470835
W        2.80661984       0.99520492       2.81350706      -0.00731674      -0.18447688      -0.18884370
W        2.81835172       2.83963348       0.95778646      -0.00130837      -0.20814364      -0.21269408
W        0.92737901       2.79576873       2.80515771      -0.11380681      -0.10776283      -0.08214866
W        3.71728436       3.76336297       3.66230511       0.01915218      -0.08188964       0.65542090
W        5.56055492       5.55792203       5.58068390      -0.00588642       0.65613145      -0.07702621
6
Lattice="-0.05773931 3.656310282 3.690614486 3.700523248 0.055721916 3.707500434 3.72397022 3.744249909 -0.003862619" Properties=species:S:1:pos:R:3:forces:R:3 generation=8 composition=W6 config_type=C15_aa source_path=V-Cr-Ti-W-Zr/Fixed_Engrads/vcrtiwzr_fin_engrads/job_gen_6-2024-12-23/W/W6_C15_idx_3028 date_processed=2025-02-12T16:53:55.796760 structure_index=3028 structure_id=21679 energy=-74.85563354492187 stress="0.0145805772576656 0.01026282607456208 -0.00636285654630868 0.01026282607456208 0.007109659354729739 -0.005253359642582546 -0.00636285654630868 -0.005253359642582546 0.010016436260308712" calculation_info="_JSON {\"calculation_id\": 21678, \"calculator\": \"vasp\", \"calculation_source_path\": \"\", \"error\": null, \"status\": \"completed\", \"gpu_count\": null, \"parameters\": {}, \"date_started\": null, \"gpu_memory_mb\": null, \"model_version\": null, \"date_completed\": null, \"runtime_seconds\": null}" parent_id=21679 step=8 variance=0.00407334603369236 loss=0.00407334603369236 pbc="T T T"
W        0.95893190       0.96991259       0.96214567       0.11585858      -0.07796189      -0.10126021
W        2.80900256       0.99754926       2.81588373      -0.00831740      -0.19517383      -0.20007774
W        2.82073610       2.84200894       0.96015399      -0.00178961      -0.22277942      -0.22743960
W        0.92974248       2.79816517       2.80755121      -0.12120651      -0.11609812      -0.08748303
W        3.71941130       3.76570978       3.66000534       0.02133907      -0.08755063       0.69906014
W        5.56292475       5.55567299       5.58300745      -0.00588415       0.69956386      -0.08279960
6
Lattice="-0.05773931 3.656310282 3.690614486 3.700523248 0.055721916 3.707500434 3.72397022 3.744249909 -0.003862619" Properties=species:S:1:pos:R:3:forces:R:3 generation=8 composition=W6 config_type=C15_aa source_path=V-Cr-Ti-W-Zr/Fixed_Engrads/vcrtiwzr_fin_engrads/job_gen_6-2024-12-23/W/W6_C15_idx_3028 date_processed=2025-02-12T16:53:55.796760 structure_index=3028 structure_id=21679 energy=-74.8497100830078 stress="0.0145805772576656 0.01026282607456208 -0.00636285654630868 0.01026282607456208 0.007109659354729739 -0.005253359642582546 -0.00636285654630868 -0.005253359642582546 0.010016436260308712" calculation_info="_JSON {\"calculation_id\": 21678, \"calculator\": \"vasp\", \"calculation_source_path\": \"\", \"error\": null, \"status\": \"completed\", \"gpu_count\": null, \"parameters\": {}, \"date_started\": null, \"gpu_memory_mb\": null, \"model_version\": null, \"date_completed\": null, \"runtime_seconds\": null}" parent_id=21679 step=9 variance=0.004071524366736412 loss=0.004071524366736412 pbc="T T T"
W        0.96107584       0.97201574       0.96425121       0.12172385      -0.08147062      -0.10702761
W        2.81111853       0.99962665       2.81799360      -0.00931686      -0.20444942      -0.20989974
W        2.82285360       2.84411747       0.96225429      -0.00228923      -0.23587374      -0.24055226
W        0.93183899       2.80029504       2.80967794      -0.12773317      -0.12370537      -0.09224015
W        3.72127630       3.76779273       3.65796674       0.02349176      -0.09248500       0.73758173
W        5.56502610       5.55367566       5.58507060      -0.00587628       0.73798418      -0.08786210
6
Lattice="-0.05773931 3.656310282 3.690614486 3.700523248 0.055721916 3.707500434 3.72397022 3.744249909 -0.003862619" Properties=species:S:1:pos:R:3:forces:R:3 generation=8 composition=W6 config_type=C15_aa source_path=V-Cr-Ti-W-Zr/Fixed_Engrads/vcrtiwzr_fin_engrads/job_gen_6-2024-12-23/W/W6_C15_idx_3028 date_processed=2025-02-12T16:53:55.796760 structure_index=3028 structure_id=21679 energy=-74.8441665649414 stress="0.0145805772576656 0.01026282607456208 -0.00636285654630868 0.01026282607456208 0.007109659354729739 -0.005253359642582546 -0.00636285654630868 -0.005253359642582546 0.010016436260308712" calculation_info="_JSON {\"calculation_id\": 21678, \"calculator\": \"vasp\", \"calculation_source_path\": \"\", \"error\": null, \"status\": \"completed\", \"gpu_count\": null, \"parameters\": {}, \"date_started\": null, \"gpu_memory_mb\": null, \"model_version\": null, \"date_completed\": null, \"runtime_seconds\": null}" parent_id=21679 step=10 variance=0.004073178395628929 loss=0.004073178395628929 pbc="T T T"
W        0.96299222       0.97388976       0.96612845       0.12687466      -0.08447800      -0.11211513
W        2.81300772       1.00147706       2.81987672      -0.01031519      -0.21254134      -0.21854322
W        2.82474414       2.84599906       0.96412736      -0.00281824      -0.24763933      -0.25225049
W        0.93370860       2.80219828       2.81157789      -0.13352168      -0.13067879      -0.09653135
W        3.72291594       3.76965096       3.65615179       0.02564427      -0.09681183       0.77176732
W        5.56689894       5.55189235       5.58691205      -0.00586392       0.77214938      -0.09232721
6
Lattice="-0.05773931 3.656310282 3.690614486 3.700523248 0.055721916 3.707500434 3.72397022 3.744249909 -0.003862619" Properties=species:S:1:pos:R:3:forces:R:3 generation=8 composition=W6 config_type=C15_aa source_path=V-Cr-Ti-W-Zr/Fixed_Engrads/vcrtiwzr_fin_engrads/job_gen_6-2024-12-23/W/W6_C15_idx_3028 date_processed=2025-02-12T16:53:55.796760 structure_index=3028 structure_id=21679 energy=-74.83898315429687 stress="0.0145805772576656 0.01026282607456208 -0.00636285654630868 0.01026282607456208 0.007109659354729739 -0.005253359642582546 -0.00636285654630868 -0.005253359642582546 0.010016436260308712" calculation_info="_JSON {\"calculation_id\": 21678, \"calculator\": \"vasp\", \"calculation_source_path\": \"\", \"error\": null, \"status\": \"completed\", \"gpu_count\": null, \"parameters\": {}, \"date_started\": null, \"gpu_memory_mb\": null, \"model_version\": null, \"date_completed\": null, \"runtime_seconds\": null}" parent_id=21679 step=11 variance=0.004077458754181862 loss=0.004077458754181862 pbc="T T T"
W        0.96471235       0.97556611       0.96780879       0.13141239      -0.08704486      -0.11659725
W        2.81470157       1.00313187       2.82156448      -0.01133328      -0.21963434      -0.22618344
W        2.82643912       2.84768515       0.96580465      -0.00336970      -0.25824323      -0.26273939
W        0.93538274       2.80390632       2.81328248      -0.13868120      -0.13713463      -0.10043474
W        3.72435754       3.77131580       3.65452910       0.02783585      -0.10062613       0.80224478
W        5.56857471       5.55029212       5.58856336      -0.00586415       0.80268323      -0.09628993
6
Lattice="-0.05773931 3.656310282 3.690614486 3.700523248 0.055721916 3.707500434 3.72397022 3.744249909 -0.003862619" Properties=species:S:1:pos:R:3:forces:R:3 generation=8 composition=W6 config_type=C15_aa source_path=V-Cr-Ti-W-Zr/Fixed_Engrads/vcrtiwzr_fin_engrads/job_gen_6-2024-12-23/W/W6_C15_idx_3028 date_processed=2025-02-12T16:53:55.796760 structure_index=3028 structure_id=21679 energy=-74.8341567993164 stress="0.0145805772576656 0.01026282607456208 -0.00636285654630868 0.01026282607456208 0.007109659354729739 -0.005253359642582546 -0.00636285654630868 -0.005253359642582546 0.010016436260308712" calculation_info="_JSON {\"calculation_id\": 21678, \"calculator\": \"vasp\", \"calculation_source_path\": \"\", \"error\": null, \"status\": \"completed\", \"gpu_count\": null, \"parameters\": {}, \"date_started\": null, \"gpu_memory_mb\": null, \"model_version\": null, \"date_completed\": null, \"runtime_seconds\": null}" parent_id=21679 step=12 variance=0.004083136562258005 loss=0.004083136562258005 pbc="T T T"
W        0.96626148       0.97706997       0.96931752       0.13542835      -0.08923425      -0.12053593
W        2.81622536       1.00461655       2.82308215      -0.01236656      -0.22587065      -0.23297445
W        2.82796381       2.84920102       0.96731146      -0.00395393      -0.26783818      -0.27215821
W        0.93688670       2.80544446       2.81481695      -0.14329399      -0.14312123      -0.10400490
W        3.72562779       3.77281256       3.65307470       0.03004836      -0.10400432       0.82950002
W        5.57007869       5.54885158       5.59004878      -0.00586212       0.83006847      -0.09982637
6
Lattice="-0.05773931 3.656310282 3.690614486 3.700523248 0.055721916 3.707500434 3.72397022 3.744249909 -0.003862619" Properties=species:S:1:pos:R:3:forces:R:3 generation=8 composition=W6 config_type=C15_aa source_path=V-Cr-Ti-W-Zr/Fixed_Engrads/vcrtiwzr_fin_engrads/job_gen_6-2024-12-23/W/W6_C15_idx_3028 date_processed=2025-02-12T16:53:55.796760 structure_index=3028 structure_id=21679 energy=-74.82967071533203 stress="0.0145805772576656 0.01026282607456208 -0.00636285654630868 0.01026282607456208 0.007109659354729739 -0.005253359642582546 -0.00636285654630868 -0.005253359642582546 0.010016436260308712" calculation_info="_JSON {\"calculation_id\": 21678, \"calculator\": \"vasp\", \"calculation_source_path\": \"\", \"error\": null, \"status\": \"completed\", \"gpu_count\": null, \"parameters\": {}, \"date_started\": null, \"gpu_memory_mb\": null, \"model_version\": null, \"date_completed\": null, \"runtime_seconds\": null}" parent_id=21679 step=13 variance=0.00409057317301631 loss=0.00409057317301631 pbc="T T T"
W        0.96766047       0.97842213       0.97067544       0.13898310      -0.09108596      -0.12399384
W        2.81759986       1.00595186       2.82445053      -0.01341297      -0.23136500      -0.23903212
W        2.82933902       2.85056747       0.96866853      -0.00456058      -0.27653790      -0.28062925
W        0.93824134       2.80683358       2.81620213      -0.14743415      -0.14869185      -0.10729666
W        3.72674803       3.77416164       3.65176670       0.03227841      -0.10700183       0.85395545
W        5.57143163       5.54755302       5.59138966      -0.00585387       0.85468262      -0.10300360
6
Lattice="-0.05773931 3.656310282 3.690614486 3.700523248 0.055721916 3.707500434 3.72397022 3.744249909 -0.003862619" Properties=species:S:1:pos:R:3:forces:R:3 generation=8 composition=W6 config_type=C15_aa source_path=V-Cr-Ti-W-Zr/Fixed_Engrads/vcrtiwzr_fin_engrads/job_gen_6-2024-12-23/W/W6_C15_idx_3028 date_processed=2025-02-12T16:53:55.796760 structure_index=3028 structure_id=21679 energy=-74.82550964355468 stress="0.0145805772576656 0.01026282607456208 -0.00636285654630868 0.01026282607456208 0.007109659354729739 -0.005253359642582546 -0.00636285654630868 -0.005253359642582546 0.010016436260308712" calculation_info="_JSON {\"calculation_id\": 21678, \"calculator\": \"vasp\", \"calculation_source_path\": \"\", \"error\": null, \"status\": \"completed\", \"gpu_count\": null, \"parameters\": {}, \"date_started\": null, \"gpu_memory_mb\": null, \"model_version\": null, \"date_completed\": null, \"runtime_seconds\": null}" parent_id=21679 step=14 variance=0.0040992796421051025 loss=0.0040992796421051025 pbc="T T T"
W        0.96892670       0.97963992       0.97189989       0.14213137      -0.09264071      -0.12701444
W        2.81884243       1.00715494       2.82568696      -0.01448388      -0.23620442      -0.24445620
W        2.83058212       2.85180185       0.96989324      -0.00520413      -0.28443968      -0.28825796
W        0.93946395       2.80809100       2.81745540      -0.15114543      -0.15390936      -0.11035611
W        3.72773350       3.77537975       3.65058812       0.03454174      -0.10966425       0.87595445
W        5.57265102       5.54637994       5.59260275      -0.00583988       0.87685835      -0.10586967
6
Lattice="-0.05773931 3.656310282 3.690614486 3.700523248 0.055721916 3.707500434 3.72397022 3.744249909 -0.003862619" Properties=species:S:1:pos:R:3:forces:R:3 generation=8 composition=W6 config_type=C15_aa source_path=V-Cr-Ti-W-Zr/Fixed_Engrads/vcrtiwzr_fin_engrads/job_gen_6-2024-12-23/W/W6_C15_idx_3028 date_processed=2025-02-12T16:53:55.796760 structure_index=3028 structure_id=21679 energy=-74.82165069580078 stress="0.0145805772576656 0.01026282607456208 -0.00636285654630868 0.01026282607456208 0.007109659354729739 -0.005253359642582546 -0.00636285654630868 -0.005253359642582546 0.010016436260308712" calculation_info="_JSON {\"calculation_id\": 21678, \"calculator\": \"vasp\", \"calculation_source_path\": \"\", \"error\": null, \"status\": \"completed\", \"gpu_count\": null, \"parameters\": {}, \"date_started\": null, \"gpu_memory_mb\": null, \"model_version\": null, \"date_completed\": null, \"runtime_seconds\": null}" parent_id=21679 step=15 variance=0.004109357949346304 loss=0.004109357949346304 pbc="T T T"
W        0.97007485       0.98073785       0.97300557       0.14491424      -0.09390929      -0.12962596
W        2.81996781       1.00824047       2.82680619      -0.01558316      -0.24048391      -0.24932289
W        2.83170782       2.85291889       0.97100029      -0.00588859      -0.29163513      -0.29513779
W        0.94056928       2.80923152       2.81859153      -0.15449914      -0.15881935      -0.11322197
W        3.72859347       3.77648127       3.64952438       0.03689546      -0.11203186       0.89577448
W        5.57375152       5.54531726       5.59370271      -0.00583893       0.89687937      -0.10846584
6
Lattice="-0.05773931 3.656310282 3.690614486 3.700523248 0.055721916 3.707500434 3.72397022 3.744249909 -0.003862619" Properties=species:S:1:pos:R:3:forces:R:3 generation=8 composition=W6 config_type=C15_aa source_path=V-Cr-Ti-W-Zr/Fixed_Engrads/vcrtiwzr_fin_engrads/job_gen_6-2024-12-23/W/W6_C15_idx_3028 date_processed=2025-02-12T16:53:55.796760 structure_index=3028 structure_id=21679 energy=-74.81808319091797 stress="0.0145805772576656 0.01026282607456208 -0.00636285654630868 0.01026282607456208 0.007109659354729739 -0.005253359642582546 -0.00636285654630868 -0.005253359642582546 0.010016436260308712" calculation_info="_JSON {\"calculation_id\": 21678, \"calculator\": \"vasp\", \"calculation_source_path\": \"\", \"error\": null, \"status\": \"completed\", \"gpu_count\": null, \"parameters\": {}, \"date_started\": null, \"gpu_memory_mb\": null, \"model_version\": null, \"date_completed\": null, \"runtime_seconds\": null}" parent_id=21679 step=16 variance=0.004120971076190472 loss=0.004120971076190472 pbc="T T T"
W        0.97111746       0.98172847       0.97400493       0.14737698      -0.09492340      -0.13186347
W        2.82098864       1.00922111       2.82782081      -0.01672607      -0.24426413      -0.25369909
W        2.83272876       2.85393117       0.97200227      -0.00661960      -0.29819497      -0.30134171
W        0.94156989       2.81026782       2.81962312      -0.15752497      -0.16346423      -0.11592643
W        3.72934076       3.77747923       3.64856413       0.03932998      -0.11414238       0.91365159
W        5.57474584       5.54435361       5.59470149      -0.00583626       0.91498929      -0.11082084
6