8
Lattice="5.018155296 0.035207901 -0.081883361 -0.019222764 5.02131488 0.025125504 0.080245836 -0.024352029 5.116231753" Properties=species:S:1:pos:R:3:forces:R:3 generation=6 composition=W8 config_type=A15 source_path=V-Cr-Ti-W-Zr/Fixed_Engrads/vcrtiwzr_fin_engrads/job_gen_6-2024-12-23/W/W8_A15_idx_2959 date_processed=2025-02-12T16:54:02.482045 structure_index=2959 structure_id=21808 energy=-102.81673 stress="-0.05454385544358082 0.0020534377778882143 0.0004720453351905508 0.0020534377778882143 -0.052993021429563476 -0.00017807649687057525 0.0004720453351905508 -0.00017807649687057525 0.0005740565603439868" calculation_info="_JSON {\"calculation_id\": 21807, \"calculator\": \"vasp\", \"calculation_source_path\": \"\", \"error\": null, \"status\": \"completed\", \"gpu_count\": null, \"parameters\": {}, \"date_started\": null, \"gpu_memory_mb\": null, \"model_version\": null, \"date_completed\": null, \"runtime_seconds\": null}" pbc="T T T"
W        0.00000000       0.00000000       0.00000000       0.00000000       0.00000000       0.00000000
W        2.53959000       2.51609000       2.52974000       0.00000000       0.00000000       0.00000000
W        1.32517000       2.49511000       5.10832000       0.00996900       0.00155200       0.00002300
W        3.83425000       2.51271000       5.06738000      -0.00996900      -0.00155200      -0.00002300
W        0.03532000       1.24315000       2.56440000      -0.00146600      -0.01066400       0.00002700
W        5.04386000       3.78902000       2.49508000       0.00146600       0.01066400      -0.00002700
W        2.50992000       5.03283000       1.26324000      -0.00062200      -0.00018400       0.00037500
W        2.56926000      -0.00066000       3.79623000       0.00062200       0.00018400      -0.00037500
8
Lattice="5.018155296 0.035207901 -0.081883361 -0.019222764 5.02131488 0.025125504 0.080245836 -0.024352029 5.116231753" Properties=species:S:1:pos:R:3:forces:R:3 generation=8 composition=W8 config_type=A15_aa source_path=V-Cr-Ti-W-Zr/Fixed_Engrads/vcrtiwzr_fin_engrads/job_gen_6-2024-12-23/W/W8_A15_idx_2959 date_processed=2025-02-12T16:54:02.482045 structure_index=2959 structure_id=21808 energy=-102.66085510253906 stress="-0.05454385544358082 0.0020534377778882143 0.0004720453351905508 0.0020534377778882143 -0.052993021429563476 -0.00017807649687057525 0.0004720453351905508 -0.00017807649687057525 0.0005740565603439868" calculation_info="_JSON {\"calculation_id\": 21807, \"calculator\": \"vasp\", \"calculation_source_path\": \"\", \"error\": null, \"status\": \"completed\", \"gpu_count\": null, \"parameters\": {}, \"date_started\": null, \"gpu_memory_mb\": null, \"model_version\": null, \"date_completed\": null, \"runtime_seconds\": null}" parent_id=21808 step=0 variance=0.29944783449172974 loss=0.29944783449172974 pbc="T T T"
W        0.00000000       0.00000000       0.00000000       0.00000729       0.00001157       0.00003923
W        2.53959000       2.51609000       2.52974000      -0.00000510      -0.00007549      -0.00009055
W        1.32517000       2.49511000       5.10832000       0.02059859       0.00833036       0.00161307
W        3.83425000       2.51271000       5.06738000      -0.02056692      -0.00835512      -0.00146787
W        0.03532000       1.24315000       2.56440000      -0.00813818      -0.02099532       0.00050324
W        5.04386000       3.78902000       2.49508000       0.00812515       0.02101058      -0.00062630
W        2.50992000       5.03283000       1.26324000      -0.00179379      -0.00048394       0.00048936
W        2.56926000      -0.00066000       3.79623000       0.00177306       0.00055737      -0.00046019
8
Lattice="5.018155296 0.035207901 -0.081883361 -0.019222764 5.02131488 0.025125504 0.080245836 -0.024352029 5.116231753" Properties=species:S:1:pos:R:3:forces:R:3 generation=8 composition=W8 config_type=A15_aa source_path=V-Cr-Ti-W-Zr/Fixed_Engrads/vcrtiwzr_fin_engrads/job_gen_6-2024-12-23/W/W8_A15_idx_2959 date_processed=2025-02-12T16:54:02.482045 structure_index=2959 structure_id=21808 energy=-102.63780517578125 stress="-0.05454385544358082 0.0020534377778882143 0.0004720453351905508 0.0020534377778882143 -0.052993021429563476 -0.00017807649687057525 0.0004720453351905508 -0.00017807649687057525 0.0005740565603439868" calculation_info="_JSON {\"calculation_id\": 21807, \"calculator\": \"vasp\", \"calculation_source_path\": \"\", \"error\": null, \"status\": \"completed\", \"gpu_count\": null, \"parameters\": {}, \"date_started\": null, \"gpu_memory_mb\": null, \"model_version\": null, \"date_completed\": null, \"runtime_seconds\": null}" parent_id=21808 step=1 variance=0.0006281054229475558 loss=0.0006281054229475558 pbc="T T T"
W        0.01000000       0.01000000       0.01000000      -0.16842277      -0.17573158      -0.06740004
W        2.52959000       2.50609000       2.51974000       0.30807990       0.30035609       0.15912294
W        1.33517000       2.50511000       5.11832000      -0.38003141       0.01208925      -0.15197483
W        3.82425000       2.50271000       5.05738000       0.41224170       0.24420938       0.10874387
W        0.04532000       1.23315000       2.57440000      -0.20399328       0.41280746      -0.09475230
W        5.05386000       3.79902000       2.50508000      -0.21729462      -0.37704268      -0.09478372
W        2.49992000       5.04283000       1.25324000       0.26556033      -0.20892318       0.07239462
W        2.57926000       0.00934000       3.78623000      -0.01613989      -0.20776474       0.06864941
8
Lattice="5.018155296 0.035207901 -0.081883361 -0.019222764 5.02131488 0.025125504 0.080245836 -0.024352029 5.116231753" Properties=species:S:1:pos:R:3:forces:R:3 generation=8 composition=W8 config_type=A15_aa source_path=V-Cr-Ti-W-Zr/Fixed_Engrads/vcrtiwzr_fin_engrads/job_gen_6-2024-12-23/W/W8_A15_idx_2959 date_processed=2025-02-12T16:54:02.482045 structure_index=2959 structure_id=21808 energy=-102.59562072753906 stress="-0.05454385544358082 0.0020534377778882143 0.0004720453351905508 0.0020534377778882143 -0.052993021429563476 -0.00017807649687057525 0.0004720453351905508 -0.00017807649687057525 0.0005740565603439868" calculation_info="_JSON {\"calculation_id\": 21807, \"calculator\": \"vasp\", \"calculation_source_path\": \"\", \"error\": null, \"status\": \"completed\", \"gpu_count\": null, \"parameters\": {}, \"date_started\": null, \"gpu_memory_mb\": null, \"model_version\": null, \"date_completed\": null, \"runtime_seconds\": null}" parent_id=21808 step=2 variance=0.00045675833825953305 loss=0.00045675833825953305 pbc="T T T"
W        0.01670047       0.01669970       0.01670049      -0.28310007      -0.28951517      -0.11483242
W        2.52287464       2.49939056       2.51303630       0.50851423       0.50280261       0.26915169
W        1.34185963       2.51181112       5.12502152      -0.64740622       0.01400639      -0.25619811
W        3.81755984       2.49600876       5.05067508       0.69994676       0.40933266       0.17483144
W        0.05202141       1.22646264       2.58110199      -0.33345085       0.69978887      -0.15604822
W        5.06056104       3.80571301       2.51178385      -0.36061105      -0.64103717      -0.15137029
W        2.49321807       5.04953094       1.24653916       0.44436878      -0.34879571       0.11791225
W        2.58596052       0.01604041       3.77952945      -0.02826166      -0.34658247       0.11655382
8
Lattice="5.018155296 0.035207901 -0.081883361 -0.019222764 5.02131488 0.025125504 0.080245836 -0.024352029 5.116231753" Properties=species:S:1:pos:R:3:forces:R:3 generation=8 composition=W8 config_type=A15_aa source_path=V-Cr-Ti-W-Zr/Fixed_Engrads/vcrtiwzr_fin_engrads/job_gen_6-2024-12-23/W/W8_A15_idx_2959 date_processed=2025-02-12T16:54:02.482045 structure_index=2959 structure_id=21808 energy=-102.5484832763672 stress="-0.05454385544358082 0.0020534377778882143 0.0004720453351905508 0.0020534377778882143 -0.052993021429563476 -0.00017807649687057525 0.0004720453351905508 -0.00017807649687057525 0.0005740565603439868" calculation_info="_JSON {\"calculation_id\": 21807, \"calculator\": \"vasp\", \"calculation_source_path\": \"\", \"error\": null, \"status\": \"completed\", \"gpu_count\": null, \"parameters\": {}, \"date_started\": null, \"gpu_memory_mb\": null, \"model_version\": null, \"date_completed\": null, \"runtime_seconds\": null}" parent_id=21808 step=3 variance=0.0004220584814902395 loss=0.0004220584814902395 pbc="T T T"
W        0.02187983       0.02187808       0.02187999      -0.37284544      -0.37518385      -0.15273152
W        2.51768060       2.49421239       2.50785259       0.65992677       0.65982074       0.35585076
W        1.34702785       2.51699137       5.13020195      -0.85362470       0.01538613      -0.33727399
W        3.81239102       2.49082872       5.04549030       0.92102277       0.53413737       0.22117658
W        0.05720191       1.22129694       2.58628332      -0.43228287       0.92012930      -0.20185414
W        5.06574112       3.81088466       2.51696763      -0.46677160      -0.84409559      -0.19143543
W        2.48803704       5.05471093       1.24135924       0.58232212      -0.45696655       0.15169683
W        2.59114003       0.02121973       3.77434994      -0.03774716      -0.45322743       0.15457094
8
Lattice="5.018155296 0.035207901 -0.081883361 -0.019222764 5.02131488 0.025125504 0.080245836 -0.024352029 5.116231753" Properties=species:S:1:pos:R:3:forces:R:3 generation=8 composition=W8 config_type=A15_aa source_path=V-Cr-Ti-W-Zr/Fixed_Engrads/vcrtiwzr_fin_engrads/job_gen_6-2024-12-23/W/W8_A15_idx_2959 date_processed=2025-02-12T16:54:02.482045 structure_index=2959 structure_id=21808 energy=-102.5005126953125 stress="-0.05454385544358082 0.0020534377778882143 0.0004720453351905508 0.0020534377778882143 -0.052993021429563476 -0.00017807649687057525 0.0004720453351905508 -0.00017807649687057525 0.0005740565603439868" calculation_info="_JSON {\"calculation_id\": 21807, \"calculator\": \"vasp\", \"calculation_source_path\": \"\", \"error\": null, \"status\": \"completed\", \"gpu_count\": null, \"parameters\": {}, \"date_started\": null, \"gpu_memory_mb\": null, \"model_version\": null, \"date_completed\": null, \"runtime_seconds\": null}" parent_id=21808 step=4 variance=0.00041098444489762187 loss=0.00041098444489762187 pbc="T T T"
W        0.02612233       0.02611952       0.02612271      -0.44714451      -0.44385490      -0.18457948
W        2.51342395       2.48997107       2.50360523       0.78163868       0.78873909       0.42786670
W        1.35125970       2.52123487       5.13444547      -1.02226686       0.01658399      -0.40394840
W        3.80815849       2.48658565       5.04124201       1.10119665       0.63427103       0.25588003
W        0.06144564       1.21706761       2.59052799      -0.51235354       1.09986949      -0.23827501
W        5.06998444       3.81511978       2.52121507      -0.55058682      -1.00997758      -0.22186002
W        2.48379281       5.05895415       1.23711606       0.69513714      -0.54557705       0.17849079
W        2.59538276       0.02546223       3.77010722      -0.04562054      -0.54005408       0.18642546
8
Lattice="5.018155296 0.035207901 -0.081883361 -0.019222764 5.02131488 0.025125504 0.080245836 -0.024352029 5.116231753" Properties=species:S:1:pos:R:3:forces:R:3 generation=8 composition=W8 config_type=A15_aa source_path=V-Cr-Ti-W-Zr/Fixed_Engrads/vcrtiwzr_fin_engrads/job_gen_6-2024-12-23/W/W8_A15_idx_2959 date_processed=2025-02-12T16:54:02.482045 structure_index=2959 structure_id=21808 energy=-102.45345458984374 stress="-0.05454385544358082 0.0020534377778882143 0.0004720453351905508 0.0020534377778882143 -0.052993021429563476 -0.00017807649687057525 0.0004720453351905508 -0.00017807649687057525 0.0005740565603439868" calculation_info="_JSON {\"calculation_id\": 21807, \"calculator\": \"vasp\", \"calculation_source_path\": \"\", \"error\": null, \"status\": \"completed\", \"gpu_count\": null, \"parameters\": {}, \"date_started\": null, \"gpu_memory_mb\": null, \"model_version\": null, \"date_completed\": null, \"runtime_seconds\": null}" parent_id=21808 step=5 variance=0.00040734332287684083 loss=0.00040734332287684083 pbc="T T T"
W        0.02970811       0.02970425       0.02970876      -0.51053202      -0.50080359      -0.21206138
W        2.50982414       2.48638645       2.50001438       0.88287050       0.89788783       0.48939887
W        1.35483543       2.52482173       5.13803224      -1.16464913       0.01771028      -0.46045488
W        3.80458202       2.48299939       5.03765031       1.25281203       0.71728784       0.28285074
W        0.06503271       1.21349436       2.59411606      -0.57935011       1.25140190      -0.26824787
W        5.07357109       3.81869853       2.52480612      -0.61914521      -1.14999866      -0.24590485
W        2.48020531       5.06254071       1.23352951       0.79035681      -0.62045926       0.20054829
W        2.59896883       0.02904805       3.76652118      -0.05236298      -0.61302620       0.21387100
8
Lattice="5.018155296 0.035207901 -0.081883361 -0.019222764 5.02131488 0.025125504 0.080245836 -0.024352029 5.116231753" Properties=species:S:1:pos:R:3:forces:R:3 generation=8 composition=W8 config_type=A15_aa source_path=V-Cr-Ti-W-Zr/Fixed_Engrads/vcrtiwzr_fin_engrads/job_gen_6-2024-12-23/W/W8_A15_idx_2959 date_processed=2025-02-12T16:54:02.482045 structure_index=2959 structure_id=21808 energy=-102.40814819335938 stress="-0.05454385544358082 0.0020534377778882143 0.0004720453351905508 0.0020534377778882143 -0.052993021429563476 -0.00017807649687057525 0.0004720453351905508 -0.00017807649687057525 0.0005740565603439868" calculation_info="_JSON {\"calculation_id\": 21807, \"calculator\": \"vasp\", \"calculation_source_path\": \"\", \"error\": null, \"status\": \"completed\", \"gpu_count\": null, \"parameters\": {}, \"date_started\": null, \"gpu_memory_mb\": null, \"model_version\": null, \"date_completed\": null, \"runtime_seconds\": null}" parent_id=21808 step=6 variance=0.00040669285226613283 loss=0.00040669285226613283 pbc="T T T"
W        0.03279849       0.03279359       0.03279946      -0.56562805      -0.54905790      -0.23616056
W        2.50671972       2.48329722       2.49691881       0.96891755       0.99208432       0.54290074
W        1.35791636       2.52791325       5.14112359      -1.28726363       0.01880921      -0.50925148
W        3.80150033       2.47990861       5.03455391       1.38299119       0.78756827       0.30431899
W        0.06812443       1.21041587       2.59720881      -0.63657469       1.38177705      -0.29346922
W        5.07666239       3.82178227       2.52790201      -0.67651987      -1.27060866      -0.26541933
W        2.47711323       5.06563193       1.23043830       0.87232888      -0.68498778       0.21915057
W        2.60205956       0.03213850       3.76343048      -0.05825142      -0.67558467       0.23793034
8
Lattice="5.018155296 0.035207901 -0.081883361 -0.019222764 5.02131488 0.025125504 0.080245836 -0.024352029 5.116231753" Properties=species:S:1:pos:R:3:forces:R:3 generation=8 composition=W8 config_type=A15_aa source_path=V-Cr-Ti-W-Zr/Fixed_Engrads/vcrtiwzr_fin_engrads/job_gen_6-2024-12-23/W/W8_A15_idx_2959 date_processed=2025-02-12T16:54:02.482045 structure_index=2959 structure_id=21808 energy=-102.36499938964843 stress="-0.05454385544358082 0.0020534377778882143 0.0004720453351905508 0.0020534377778882143 -0.052993021429563476 -0.00017807649687057525 0.0004720453351905508 -0.00017807649687057525 0.0005740565603439868" calculation_info="_JSON {\"calculation_id\": 21807, \"calculator\": \"vasp\", \"calculation_source_path\": \"\", \"error\": null, \"status\": \"completed\", \"gpu_count\": null, \"parameters\": {}, \"date_started\": null, \"gpu_memory_mb\": null, \"model_version\": null, \"date_completed\": null, \"runtime_seconds\": null}" parent_id=21808 step=7 variance=0.0004073653544764966 loss=0.0004073653544764966 pbc="T T T"
W        0.03549723       0.03549132       0.03549857      -0.61411130      -0.59056979      -0.25750929
W        2.50400660       2.48059961       2.49421474       1.04315531       1.07441378       0.58996981
W        1.36060622       2.53061317       5.14382329      -1.39428258       0.01989782      -0.55193031
W        3.79880969       2.47720954       5.03184913       1.49628830       0.84793586       0.32171088
W        0.07082457       1.20772850       2.59991000      -0.68613899       1.49552464      -0.31502354
W        5.07936211       3.82447472       2.53060644      -0.72530353      -1.37593377      -0.28156942
W        2.47441284       5.06833156       1.22773867       0.94384968      -0.74132359       0.23509088
W        2.60475870       0.03483735       3.76073138      -0.06345744      -0.72994447       0.25926098
8
Lattice="5.018155296 0.035207901 -0.081883361 -0.019222764 5.02131488 0.025125504 0.080245836 -0.024352029 5.116231753" Properties=species:S:1:pos:R:3:forces:R:3 generation=8 composition=W8 config_type=A15_aa source_path=V-Cr-Ti-W-Zr/Fixed_Engrads/vcrtiwzr_fin_engrads/job_gen_6-2024-12-23/W/W8_A15_idx_2959 date_processed=2025-02-12T16:54:02.482045 structure_index=2959 structure_id=21808 energy=-102.32420349121094 stress="-0.05454385544358082 0.0020534377778882143 0.0004720453351905508 0.0020534377778882143 -0.052993021429563476 -0.00017807649687057525 0.0004720453351905508 -0.00017807649687057525 0.0005740565603439868" calculation_info="_JSON {\"calculation_id\": 21807, \"calculator\": \"vasp\", \"calculation_source_path\": \"\", \"error\": null, \"status\": \"completed\", \"gpu_count\": null, \"parameters\": {}, \"date_started\": null, \"gpu_memory_mb\": null, \"model_version\": null, \"date_completed\": null, \"runtime_seconds\": null}" parent_id=21808 step=8 variance=0.0004085909458808601 loss=0.0004085909458808601 pbc="T T T"
W        0.03787625       0.03786937       0.03787800      -0.65715802      -0.62666732      -0.27658167
W        2.50161282       2.47822169       2.49183031       1.10791647       1.14704394       0.63174766
W        1.36297682       2.53299337       5.14620326      -1.48860323       0.02097642      -0.58961260
W        3.79643826       2.47483020       5.02946405       1.59588647       0.90034086       0.33597332
W        0.07320502       1.20536036       2.60229150      -0.72951525       1.59573472      -0.33364594
W        5.08174214       3.82684772       2.53299127      -0.76729029      -1.46881104      -0.29511708
W        2.47203220       5.07071150       1.22535871       1.00686038      -0.79096675       0.24892029
W        2.60713816       0.03721650       3.75835197      -0.06809650      -0.77765101       0.27831596
8
Lattice="5.018155296 0.035207901 -0.081883361 -0.019222764 5.02131488 0.025125504 0.080245836 -0.024352029 5.116231753" Properties=species:S:1:pos:R:3:forces:R:3 generation=8 composition=W8 config_type=A15_aa source_path=V-Cr-Ti-W-Zr/Fixed_Engrads/vcrtiwzr_fin_engrads/job_gen_6-2024-12-23/W/W8_A15_idx_2959 date_processed=2025-02-12T16:54:02.482045 structure_index=2959 structure_id=21808 energy=-102.28583679199218 stress="-0.05454385544358082 0.0020534377778882143 0.0004720453351905508 0.0020534377778882143 -0.052993021429563476 -0.00017807649687057525 0.0004720453351905508 -0.00017807649687057525 0.0005740565603439868" calculation_info="_JSON {\"calculation_id\": 21807, \"calculator\": \"vasp\", \"calculation_source_path\": \"\", \"error\": null, \"status\": \"completed\", \"gpu_count\": null, \"parameters\": {}, \"date_started\": null, \"gpu_memory_mb\": null, \"model_version\": null, \"date_completed\": null, \"runtime_seconds\": null}" parent_id=21808 step=9 variance=0.0004100625228602439 loss=0.0004100625228602439 pbc="T T T"
W        0.03998810       0.03998029       0.03999028      -0.69561398      -0.65830719      -0.29369909
W        2.49948533       2.47611092       2.48971298       1.16487885       1.21155047       0.66904563
W        1.36508070       2.53510643       5.14831607      -1.57232249       0.02203930      -0.62310845
W        3.79433351       2.47271809       5.02734615       1.68407345       0.94619596       0.34780794
W        0.07531834       1.20325897       2.60440586      -0.76777142       1.68467402      -0.34988657
W        5.08385504       3.82895383       2.53510906      -0.80375338      -1.55130124      -0.30662471
W        2.46991877       5.07282431       1.22324587       1.06276631      -0.83502454       0.26102379
W        2.60925050       0.03932851       3.75623970      -0.07225730      -0.81982708       0.29544154
8
Lattice="5.018155296 0.035207901 -0.081883361 -0.019222764 5.02131488 0.025125504 0.080245836 -0.024352029 5.116231753" Properties=species:S:1:pos:R:3:forces:R:3 generation=8 composition=W8 config_type=A15_aa source_path=V-Cr-Ti-W-Zr/Fixed_Engrads/vcrtiwzr_fin_engrads/job_gen_6-2024-12-23/W/W8_A15_idx_2959 date_processed=2025-02-12T16:54:02.482045 structure_index=2959 structure_id=21808 energy=-102.24989318847656 stress="-0.05454385544358082 0.0020534377778882143 0.0004720453351905508 0.0020534377778882143 -0.052993021429563476 -0.00017807649687057525 0.0004720453351905508 -0.00017807649687057525 0.0005740565603439868" calculation_info="_JSON {\"calculation_id\": 21807, \"calculator\": \"vasp\", \"calculation_source_path\": \"\", \"error\": null, \"status\": \"completed\", \"gpu_count\": null, \"parameters\": {}, \"date_started\": null, \"gpu_memory_mb\": null, \"model_version\": null, \"date_completed\": null, \"runtime_seconds\": null}" parent_id=21808 step=10 variance=0.00041157277883030474 loss=0.00041157277883030474 pbc="T T T"
W        0.04187278       0.04186408       0.04187543      -0.73014778      -0.68623859      -0.30912238
W        2.49758353       2.47422724       2.48782263       1.21532500       1.26915741       0.70249820
W        1.36695781       2.53699233       5.15020172      -1.64703214       0.02308768      -0.65303904
W        3.79245549       2.47083315       5.02545543       1.76259041       0.98658276       0.35770249
W        0.07720453       1.20138432       2.60629308      -0.80171376       1.76405334      -0.36413950
W        5.08574082       3.83083301       2.53699978      -0.83565390      -1.62498701      -0.31648773
W        2.46803254       5.07470999       1.22136015       1.11264253      -0.87433290       0.27169591
W        2.61113571       0.04121338       3.75435456      -0.07601009      -0.85732234       0.31089199
8
Lattice="5.018155296 0.035207901 -0.081883361 -0.019222764 5.02131488 0.025125504 0.080245836 -0.024352029 5.116231753" Properties=species:S:1:pos:R:3:forces:R:3 generation=8 composition=W8 config_type=A15_aa source_path=V-Cr-Ti-W-Zr/Fixed_Engrads/vcrtiwzr_fin_engrads/job_gen_6-2024-12-23/W/W8_A15_idx_2959 date_processed=2025-02-12T16:54:02.482045 structure_index=2959 structure_id=21808 energy=-102.21631164550782 stress="-0.05454385544358082 0.0020534377778882143 0.0004720453351905508 0.0020534377778882143 -0.052993021429563476 -0.00017807649687057525 0.0004720453351905508 -0.00017807649687057525 0.0005740565603439868" calculation_info="_JSON {\"calculation_id\": 21807, \"calculator\": \"vasp\", \"calculation_source_path\": \"\", \"error\": null, \"status\": \"completed\", \"gpu_count\": null, \"parameters\": {}, \"date_started\": null, \"gpu_memory_mb\": null, \"model_version\": null, \"date_completed\": null, \"runtime_seconds\": null}" parent_id=21808 step=11 variance=0.0004130505840294063 loss=0.0004130505840294063 pbc="T T T"
W        0.04356173       0.04355217       0.04356486      -0.76126528      -0.71100551      -0.32307577
W        2.49587651       2.47253928       2.48612794       1.26021743       1.32079530       0.73262298
W        1.36863954       2.53868250       5.15189162      -1.71398008       0.02410902      -0.67988622
W        3.79077282       2.46914394       5.02376049       1.83280027       1.02233565       0.36604288
W        0.07889501       1.19970506       2.60798459      -0.83197749       1.83519244      -0.37672281
W        5.08743089       3.83251666       2.53869485      -0.86372548      -1.69106889      -0.32501060
W        2.46634208       5.07639996       1.21967013       1.15733111      -0.90954942       0.28116119
W        2.61282521       0.04290255       3.75266512      -0.07940015      -0.89080846       0.32486832
8
Lattice="5.018155296 0.035207901 -0.081883361 -0.019222764 5.02131488 0.025125504 0.080245836 -0.024352029 5.116231753" Properties=species:S:1:pos:R:3:forces:R:3 generation=8 composition=W8 config_type=A15_aa source_path=V-Cr-Ti-W-Zr/Fixed_Engrads/vcrtiwzr_fin_engrads/job_gen_6-2024-12-23/W/W8_A15_idx_2959 date_processed=2025-02-12T16:54:02.482045 structure_index=2959 structure_id=21808 energy=-102.1850341796875 stress="-0.05454385544358082 0.0020534377778882143 0.0004720453351905508 0.0020534377778882143 -0.052993021429563476 -0.00017807649687057525 0.0004720453351905508 -0.00017807649687057525 0.0005740565603439868" calculation_info="_JSON {\"calculation_id\": 21807, \"calculator\": \"vasp\", \"calculation_source_path\": \"\", \"error\": null, \"status\": \"completed\", \"gpu_count\": null, \"parameters\": {}, \"date_started\": null, \"gpu_memory_mb\": null, \"model_version\": null, \"date_completed\": null, \"runtime_seconds\": null}" parent_id=21808 step=12 variance=0.0004144417471252382 loss=0.0004144417471252382 pbc="T T T"
W        0.04508024       0.04506986       0.04508388      -0.78939438      -0.73306638      -0.33571276
W        2.49433883       2.47102173       2.48460365       1.30034757       1.36724222       0.75981635
W        1.37015118       2.54020224       5.15341112      -1.77419662       0.02510339      -0.70404893
W        3.78926024       2.46762522       5.02223602       1.89583814       1.05411685       0.37310892
W        0.08041508       1.19819593       2.60950568      -0.85906047       1.89916968      -0.38788196
W        5.08895054       3.83403006       2.54021955      -0.88855648      -1.75053859      -0.33242425
W        2.46482209       5.07791951       1.21815052       1.19750130      -0.94120777       0.28960046
W        2.61434430       0.04442129       3.75114610      -0.08247919      -0.92081881       0.33754215
8
Lattice="5.018155296 0.035207901 -0.081883361 -0.019222764 5.02131488 0.025125504 0.080245836 -0.024352029 5.116231753" Properties=species:S:1:pos:R:3:forces:R:3 generation=8 composition=W8 config_type=A15_aa source_path=V-Cr-Ti-W-Zr/Fixed_Engrads/vcrtiwzr_fin_engrads/job_gen_6-2024-12-23/W/W8_A15_idx_2959 date_processed=2025-02-12T16:54:02.482045 structure_index=2959 structure_id=21808 energy=-102.15594787597657 stress="-0.05454385544358082 0.0020534377778882143 0.0004720453351905508 0.0020534377778882143 -0.052993021429563476 -0.00017807649687057525 0.0004720453351905508 -0.00017807649687057525 0.0005740565603439868" calculation_info="_JSON {\"calculation_id\": 21807, \"calculator\": \"vasp\", \"calculation_source_path\": \"\", \"error\": null, \"status\": \"completed\", \"gpu_count\": null, \"parameters\": {}, \"date_started\": null, \"gpu_memory_mb\": null, \"model_version\": null, \"date_completed\": null, \"runtime_seconds\": null}" parent_id=21808 step=13 variance=0.00041573046473786235 loss=0.00041573046473786235 pbc="T T T"
W        0.04644910       0.04643792       0.04645326      -0.81485921      -0.75277334      -0.34717661
W        2.49294994       2.46965381       2.48322895       1.33632660       1.40911567       0.78442478
W        1.37151346       2.54157233       5.15478097      -1.82847846       0.02606034      -0.72586203
W        3.78789699       2.46625617       5.02086124       1.95255017       1.08246648       0.37913403
W        0.08178554       1.19683618       2.61087712      -0.88337547       1.95684886      -0.39781579
W        5.09032057       3.83539397       2.54159465      -0.91060078      -1.80417979      -0.33891177
W        2.46345179       5.07928944       1.21678052       1.23371148      -0.96974242       0.29713818
W        2.61571376       0.04579040       3.74977671      -0.08527473      -0.94779569       0.34906927
8
Lattice="5.018155296 0.035207901 -0.081883361 -0.019222764 5.02131488 0.025125504 0.080245836 -0.024352029 5.116231753" Properties=species:S:1:pos:R:3:forces:R:3 generation=8 composition=W8 config_type=A15_aa source_path=V-Cr-Ti-W-Zr/Fixed_Engrads/vcrtiwzr_fin_engrads/job_gen_6-2024-12-23/W/W8_A15_idx_2959 date_processed=2025-02-12T16:54:02.482045 structure_index=2959 structure_id=21808 energy=-102.12894592285156 stress="-0.05454385544358082 0.0020534377778882143 0.0004720453351905508 0.0020534377778882143 -0.052993021429563476 -0.00017807649687057525 0.0004720453351905508 -0.00017807649687057525 0.0005740565603439868" calculation_info="_JSON {\"calculation_id\": 21807, \"calculator\": \"vasp\", \"calculation_source_path\": \"\", \"error\": null, \"status\": \"completed\", \"gpu_count\": null, \"parameters\": {}, \"date_started\": null, \"gpu_memory_mb\": null, \"model_version\": null, \"date_completed\": null, \"runtime_seconds\": null}" parent_id=21808 step=14 variance=0.0004169163585174829 loss=0.0004169163585174829 pbc="T T T"
W        0.04768566       0.04767374       0.04769037      -0.83797181      -0.77043480      -0.35760766
W        2.49169238       2.46841816       2.48198649       1.36870122       1.44695258       0.80674410
W        1.37274372       2.54281013       5.15601855      -1.87751734       0.02698211      -0.74558532
W        3.78666573       2.46501945       5.01961879       2.00370455       1.10782802       0.38429564
W        0.08302374       1.19560848       2.61211629      -0.90527171       2.00897670      -0.40668812
W        5.09155833       3.83662575       2.54283752      -0.93025380      -1.85268652      -0.34461260