6
Lattice="-0.039091574 3.696543553 3.734988002 3.721031304 0.033039332 3.653451573 3.663537815 3.704388032 -0.012892989" Properties=species:S:1:pos:R:3:forces:R:3 generation=6 composition=W6 config_type=C15 source_path=V-Cr-Ti-W-Zr/Fixed_Engrads/vcrtiwzr_fin_engrads/job_gen_6-2024-12-23/W/W6_C15_idx_3012 date_processed=2025-02-12T16:53:55.182119 structure_index=3012 structure_id=21665 energy=-74.96088 stress="0.0040357785253234925 -0.005396227786474014 -0.007333829396494961 -0.005396227786474014 0.0005778326733651462 0.009112216350223752 -0.007333829396494961 0.009112216350223752 0.002721123216629576" calculation_info="_JSON {\"calculation_id\": 21664, \"calculator\": \"vasp\", \"calculation_source_path\": \"\", \"error\": null, \"status\": \"completed\", \"gpu_count\": null, \"parameters\": {}, \"date_started\": null, \"gpu_memory_mb\": null, \"model_version\": null, \"date_completed\": null, \"runtime_seconds\": null}" pbc="T T T"
W        0.91818000       0.92925000       0.92194000       0.00000000       0.00000000       0.00000000
W        2.77870000       0.94577000       2.74867000       0.00000000       0.00000000       0.00000000
W        2.74995000       2.78144000       0.91550000       0.00000000       0.00000000       0.00000000
W        0.89864000       2.77752000       2.78944000       0.00000000       0.00000000       0.00000000
W        3.67274000       3.71699000       3.68777000      -0.02812800       0.02289600       0.01630400
W        5.50911000       5.57548000       5.53166000       0.02812800      -0.02289600      -0.01630400
6
Lattice="-0.039091574 3.696543553 3.734988002 3.721031304 0.033039332 3.653451573 3.663537815 3.704388032 -0.012892989" Properties=species:S:1:pos:R:3:forces:R:3 generation=8 composition=W6 config_type=C15_aa source_path=V-Cr-Ti-W-Zr/Fixed_Engrads/vcrtiwzr_fin_engrads/job_gen_6-2024-12-23/W/W6_C15_idx_3012 date_processed=2025-02-12T16:53:55.182119 structure_index=3012 structure_id=21665 energy=-74.9124969482422 stress="0.0040357785253234925 -0.005396227786474014 -0.007333829396494961 -0.005396227786474014 0.0005778326733651462 0.009112216350223752 -0.007333829396494961 0.009112216350223752 0.002721123216629576" calculation_info="_JSON {\"calculation_id\": 21664, \"calculator\": \"vasp\", \"calculation_source_path\": \"\", \"error\": null, \"status\": \"completed\", \"gpu_count\": null, \"parameters\": {}, \"date_started\": null, \"gpu_memory_mb\": null, \"model_version\": null, \"date_completed\": null, \"runtime_seconds\": null}" parent_id=21665 step=0 variance=0.2129165679216385 loss=0.2129165679216385 pbc="T T T"
W        0.91818000       0.92925000       0.92194000       0.00005820      -0.00000404       0.00008530
W        2.77870000       0.94577000       2.74867000      -0.00003033      -0.00007550      -0.00003303
W        2.74995000       2.78144000       0.91550000       0.00006091       0.00007016      -0.00008676
W        0.89864000       2.77752000       2.78944000      -0.00005059       0.00000268      -0.00000833
W        3.67274000       3.71699000       3.68777000      -0.01776925       0.01598512       0.01103042
W        5.50911000       5.57548000       5.53166000       0.01773097      -0.01597844      -0.01098764
6
Lattice="-0.039091574 3.696543553 3.734988002 3.721031304 0.033039332 3.653451573 3.663537815 3.704388032 -0.012892989" Properties=species:S:1:pos:R:3:forces:R:3 generation=8 composition=W6 config_type=C15_aa source_path=V-Cr-Ti-W-Zr/Fixed_Engrads/vcrtiwzr_fin_engrads/job_gen_6-2024-12-23/W/W6_C15_idx_3012 date_processed=2025-02-12T16:53:55.182119 structure_index=3012 structure_id=21665 energy=-74.9124969482422 stress="0.0040357785253234925 -0.005396227786474014 -0.007333829396494961 -0.005396227786474014 0.0005778326733651462 0.009112216350223752 -0.007333829396494961 0.009112216350223752 0.002721123216629576" calculation_info="_JSON {\"calculation_id\": 21664, \"calculator\": \"vasp\", \"calculation_source_path\": \"\", \"error\": null, \"status\": \"completed\", \"gpu_count\": null, \"parameters\": {}, \"date_started\": null, \"gpu_memory_mb\": null, \"model_version\": null, \"date_completed\": null, \"runtime_seconds\": null}" parent_id=21665 step=1 variance=0.21299493312835693 loss=0.21299493312835693 pbc="T T T"
W        0.92818000       0.93925000       0.93194000       0.00005875      -0.00000226       0.00008517
W        2.78870000       0.95577000       2.75867000      -0.00002769      -0.00007750      -0.00003388
W        2.75995000       2.79144000       0.92550000       0.00006351       0.00007017      -0.00008900
W        0.90864000       2.78752000       2.79944000      -0.00005368       0.00000657      -0.00000664
W        3.68274000       3.72699000       3.69777000      -0.01776764       0.01598540       0.01103087
W        5.51911000       5.58548000       5.54166000       0.01772687      -0.01598235      -0.01098643
6
Lattice="-0.039091574 3.696543553 3.734988002 3.721031304 0.033039332 3.653451573 3.663537815 3.704388032 -0.012892989" Properties=species:S:1:pos:R:3:forces:R:3 generation=8 composition=W6 config_type=C15_aa source_path=V-Cr-Ti-W-Zr/Fixed_Engrads/vcrtiwzr_fin_engrads/job_gen_6-2024-12-23/W/W6_C15_idx_3012 date_processed=2025-02-12T16:53:55.182119 structure_index=3012 structure_id=21665 energy=-74.91249237060546 stress="0.0040357785253234925 -0.005396227786474014 -0.007333829396494961 -0.005396227786474014 0.0005778326733651462 0.009112216350223752 -0.007333829396494961 0.009112216350223752 0.002721123216629576" calculation_info="_JSON {\"calculation_id\": 21664, \"calculator\": \"vasp\", \"calculation_source_path\": \"\", \"error\": null, \"status\": \"completed\", \"gpu_count\": null, \"parameters\": {}, \"date_started\": null, \"gpu_memory_mb\": null, \"model_version\": null, \"date_completed\": null, \"runtime_seconds\": null}" parent_id=21665 step=2 variance=0.21328973770141602 loss=0.21328973770141602 pbc="T T T"
W        0.93818254       0.94924518       0.94190956       0.00006500       0.00021277      -0.00025807
W        2.79868049       0.96576823       2.76866123       0.00044683      -0.00057043      -0.00036474
W        2.76994919       2.80142877       0.93549570      -0.00014283       0.00018004      -0.00053836
W        0.91863653       2.79749323       2.80944048      -0.00044830       0.00047619      -0.00060936
W        3.69274070       3.73699370       3.70754961      -0.01783813       0.01587296       0.01312865
W        5.52908885       5.59548909       5.55165679       0.01791746      -0.01617150      -0.01135824
6
Lattice="-0.039091574 3.696543553 3.734988002 3.721031304 0.033039332 3.653451573 3.663537815 3.704388032 -0.012892989" Properties=species:S:1:pos:R:3:forces:R:3 generation=8 composition=W6 config_type=C15_aa source_path=V-Cr-Ti-W-Zr/Fixed_Engrads/vcrtiwzr_fin_engrads/job_gen_6-2024-12-23/W/W6_C15_idx_3012 date_processed=2025-02-12T16:53:55.182119 structure_index=3012 structure_id=21665 energy=-74.9123291015625 stress="0.0040357785253234925 -0.005396227786474014 -0.007333829396494961 -0.005396227786474014 0.0005778326733651462 0.009112216350223752 -0.007333829396494961 0.009112216350223752 0.002721123216629576" calculation_info="_JSON {\"calculation_id\": 21664, \"calculator\": \"vasp\", \"calculation_source_path\": \"\", \"error\": null, \"status\": \"completed\", \"gpu_count\": null, \"parameters\": {}, \"date_started\": null, \"gpu_memory_mb\": null, \"model_version\": null, \"date_completed\": null, \"runtime_seconds\": null}" parent_id=21665 step=3 variance=0.10284208506345749 loss=0.10284208506345749 pbc="T T T"
W        0.94598484       0.95735673       0.94948433      -0.00022920      -0.01075819       0.02742015
W        2.80710053       0.97538774       2.77663898      -0.01389179      -0.02869984       0.01128825
W        2.77729582       2.80885989       0.94353168       0.02082987       0.01947337      -0.02237727
W        0.92695253       2.80673841       2.81721525      -0.01296812      -0.02008327       0.00772145
W        3.70180470       3.74530279       3.71619723      -0.02772574       0.01444582       0.00770716
W        5.53587836       5.59998217       5.56163149       0.03398481       0.02562211      -0.03175979
6
Lattice="-0.039091574 3.696543553 3.734988002 3.721031304 0.033039332 3.653451573 3.663537815 3.704388032 -0.012892989" Properties=species:S:1:pos:R:3:forces:R:3 generation=8 composition=W6 config_type=C15_aa source_path=V-Cr-Ti-W-Zr/Fixed_Engrads/vcrtiwzr_fin_engrads/job_gen_6-2024-12-23/W/W6_C15_idx_3012 date_processed=2025-02-12T16:53:55.182119 structure_index=3012 structure_id=21665 energy=-74.91189880371094 stress="0.0040357785253234925 -0.005396227786474014 -0.007333829396494961 -0.005396227786474014 0.0005778326733651462 0.009112216350223752 -0.007333829396494961 0.009112216350223752 0.002721123216629576" calculation_info="_JSON {\"calculation_id\": 21664, \"calculator\": \"vasp\", \"calculation_source_path\": \"\", \"error\": null, \"status\": \"completed\", \"gpu_count\": null, \"parameters\": {}, \"date_started\": null, \"gpu_memory_mb\": null, \"model_version\": null, \"date_completed\": null, \"runtime_seconds\": null}" parent_id=21665 step=4 variance=0.027170440182089806 loss=0.027170440182089806 pbc="T T T"
W        0.95257707       0.96376397       0.95572130      -0.00749930      -0.00395399       0.04675130
W        2.81425635       0.98349625       2.78315663      -0.03285366      -0.06439237       0.01859614
W        2.78369531       2.81484041       0.95027335       0.01675990       0.03866615      -0.05809758
W        0.93399739       2.81436837       2.82376201      -0.03915157      -0.03852779      -0.00546888
W        3.70172975       3.75189497       3.71882179       0.04412195       0.01649333       0.04740162
W        5.54348182       5.60442232       5.56931212       0.01862268       0.05171463      -0.04918268
6
Lattice="-0.039091574 3.696543553 3.734988002 3.721031304 0.033039332 3.653451573 3.663537815 3.704388032 -0.012892989" Properties=species:S:1:pos:R:3:forces:R:3 generation=8 composition=W6 config_type=C15_aa source_path=V-Cr-Ti-W-Zr/Fixed_Engrads/vcrtiwzr_fin_engrads/job_gen_6-2024-12-23/W/W6_C15_idx_3012 date_processed=2025-02-12T16:53:55.182119 structure_index=3012 structure_id=21665 energy=-74.91102294921875 stress="0.0040357785253234925 -0.005396227786474014 -0.007333829396494961 -0.005396227786474014 0.0005778326733651462 0.009112216350223752 -0.007333829396494961 0.009112216350223752 0.002721123216629576" calculation_info="_JSON {\"calculation_id\": 21664, \"calculator\": \"vasp\", \"calculation_source_path\": \"\", \"error\": null, \"status\": \"completed\", \"gpu_count\": null, \"parameters\": {}, \"date_started\": null, \"gpu_memory_mb\": null, \"model_version\": null, \"date_completed\": null, \"runtime_seconds\": null}" parent_id=21665 step=5 variance=0.012706027366220951 loss=0.012706027366220951 pbc="T T T"
W        0.95813866       0.96917226       0.96102077      -0.01414615       0.00181922       0.06173165
W        2.82025830       0.99030794       2.78865715      -0.04699042      -0.09301457       0.02542519
W        2.78908536       2.81988218       0.95595667       0.01388256       0.05549551      -0.08692320
W        0.93992694       2.82076163       2.82929117      -0.06035777      -0.05225252      -0.01601217
W        3.70195519       3.75746079       3.72164595       0.10162692       0.01887257       0.07437255
W        5.54988881       5.60861636       5.57536156       0.00598503       0.06907967      -0.05859407
6
Lattice="-0.039091574 3.696543553 3.734988002 3.721031304 0.033039332 3.653451573 3.663537815 3.704388032 -0.012892989" Properties=species:S:1:pos:R:3:forces:R:3 generation=8 composition=W6 config_type=C15_aa source_path=V-Cr-Ti-W-Zr/Fixed_Engrads/vcrtiwzr_fin_engrads/job_gen_6-2024-12-23/W/W6_C15_idx_3012 date_processed=2025-02-12T16:53:55.182119 structure_index=3012 structure_id=21665 energy=-74.90992126464843 stress="0.0040357785253234925 -0.005396227786474014 -0.007333829396494961 -0.005396227786474014 0.0005778326733651462 0.009112216350223752 -0.007333829396494961 0.009112216350223752 0.002721123216629576" calculation_info="_JSON {\"calculation_id\": 21664, \"calculator\": \"vasp\", \"calculation_source_path\": \"\", \"error\": null, \"status\": \"completed\", \"gpu_count\": null, \"parameters\": {}, \"date_started\": null, \"gpu_memory_mb\": null, \"model_version\": null, \"date_completed\": null, \"runtime_seconds\": null}" parent_id=21665 step=6 variance=0.008650107309222221 loss=0.008650107309222221 pbc="T T T"
W        0.96293299       0.97382435       0.96560781      -0.02023985       0.00726231       0.07376189
W        2.82541793       0.99616600       2.79340027      -0.05837066      -0.11724301       0.03137515
W        2.79373483       2.82422168       0.96085359       0.01108153       0.07027395      -0.11160674
W        0.94503425       2.82624401       2.83405998      -0.07868264      -0.06308474      -0.02537457
W        3.70220716       3.76222684       3.72416145       0.15039793       0.02166541       0.09664658
W        5.55534218       5.61250657       5.58040382      -0.00418638       0.08112614      -0.06480221
6
Lattice="-0.039091574 3.696543553 3.734988002 3.721031304 0.033039332 3.653451573 3.663537815 3.704388032 -0.012892989" Properties=species:S:1:pos:R:3:forces:R:3 generation=8 composition=W6 config_type=C15_aa source_path=V-Cr-Ti-W-Zr/Fixed_Engrads/vcrtiwzr_fin_engrads/job_gen_6-2024-12-23/W/W6_C15_idx_3012 date_processed=2025-02-12T16:53:55.182119 structure_index=3012 structure_id=21665 energy=-74.9087127685547 stress="0.0040357785253234925 -0.005396227786474014 -0.007333829396494961 -0.005396227786474014 0.0005778326733651462 0.009112216350223752 -0.007333829396494961 0.009112216350223752 0.002721123216629576" calculation_info="_JSON {\"calculation_id\": 21664, \"calculator\": \"vasp\", \"calculation_source_path\": \"\", \"error\": null, \"status\": \"completed\", \"gpu_count\": null, \"parameters\": {}, \"date_started\": null, \"gpu_memory_mb\": null, \"model_version\": null, \"date_completed\": null, \"runtime_seconds\": null}" parent_id=21665 step=7 variance=0.006847536191344261 loss=0.006847536191344261 pbc="T T T"
W        0.96712294       0.97788033       0.96962720      -0.02589021       0.01241207       0.08372444
W        2.82991849       1.00127463       2.79754369      -0.06787115      -0.13816719       0.03665634
W        2.79780136       2.82800703       0.96512957       0.00830079       0.08340935      -0.13310882
W        0.94949459       2.83101406       2.83822732      -0.09481645      -0.07191955      -0.03380506
W        3.70244926       3.76636784       3.72638539       0.19259115       0.02462717       0.11575472
W        5.56003135       5.61609265       5.58471563      -0.01231421       0.08963815      -0.06922162
6
Lattice="-0.039091574 3.696543553 3.734988002 3.721031304 0.033039332 3.653451573 3.663537815 3.704388032 -0.012892989" Properties=species:S:1:pos:R:3:forces:R:3 generation=8 composition=W6 config_type=C15_aa source_path=V-Cr-Ti-W-Zr/Fixed_Engrads/vcrtiwzr_fin_engrads/job_gen_6-2024-12-23/W/W6_C15_idx_3012 date_processed=2025-02-12T16:53:55.182119 structure_index=3012 structure_id=21665 energy=-74.90746154785157 stress="0.0040357785253234925 -0.005396227786474014 -0.007333829396494961 -0.005396227786474014 0.0005778326733651462 0.009112216350223752 -0.007333829396494961 0.009112216350223752 0.002721123216629576" calculation_info="_JSON {\"calculation_id\": 21664, \"calculator\": \"vasp\", \"calculation_source_path\": \"\", \"error\": null, \"status\": \"completed\", \"gpu_count\": null, \"parameters\": {}, \"date_started\": null, \"gpu_memory_mb\": null, \"model_version\": null, \"date_completed\": null, \"runtime_seconds\": null}" parent_id=21665 step=8 variance=0.0058882771991193295 loss=0.0058882771991193295 pbc="T T T"
W        0.97081998       0.98145087       0.97318078      -0.03118249       0.01725758       0.09211548
W        2.83388317       1.00577287       2.80119647      -0.07597581      -0.15645647       0.04140964
W        2.80139159       2.83134039       0.96889855       0.00554896       0.09518398      -0.15204577
W        0.95342743       2.83520571       2.84190289      -0.10916942      -0.07926201      -0.04144518
W        3.70267360       3.77000192       3.72835757       0.22952178       0.02764046       0.13244358
W        5.56409293       5.61939640       5.58845739      -0.01874302       0.09563646      -0.07247780
6
Lattice="-0.039091574 3.696543553 3.734988002 3.721031304 0.033039332 3.653451573 3.663537815 3.704388032 -0.012892989" Properties=species:S:1:pos:R:3:forces:R:3 generation=8 composition=W6 config_type=C15_aa source_path=V-Cr-Ti-W-Zr/Fixed_Engrads/vcrtiwzr_fin_engrads/job_gen_6-2024-12-23/W/W6_C15_idx_3012 date_processed=2025-02-12T16:53:55.182119 structure_index=3012 structure_id=21665 energy=-74.90621185302734 stress="0.0040357785253234925 -0.005396227786474014 -0.007333829396494961 -0.005396227786474014 0.0005778326733651462 0.009112216350223752 -0.007333829396494961 0.009112216350223752 0.002721123216629576" calculation_info="_JSON {\"calculation_id\": 21664, \"calculator\": \"vasp\", \"calculation_source_path\": \"\", \"error\": null, \"status\": \"completed\", \"gpu_count\": null, \"parameters\": {}, \"date_started\": null, \"gpu_memory_mb\": null, \"model_version\": null, \"date_completed\": null, \"runtime_seconds\": null}" parent_id=21665 step=9 variance=0.0053404648788273335 loss=0.0053404648788273335 pbc="T T T"
W        0.97410549       0.98461657       0.97634404      -0.03617791       0.02180853       0.09923883
W        2.83740110       1.00976174       2.80443896      -0.08296881      -0.17257717       0.04573589
W        2.80458382       2.83429648       0.97224398       0.00284616       0.10583025      -0.16885358
W        0.95691985       2.83891620       2.84516714      -0.12204300      -0.08541663      -0.04839368
W        3.70287966       3.77321487       3.73011432       0.26210162       0.03063532       0.14716706
W        5.56763049       5.62244630       5.59173533      -0.02375809       0.09971979      -0.07489453
6
Lattice="-0.039091574 3.696543553 3.734988002 3.721031304 0.033039332 3.653451573 3.663537815 3.704388032 -0.012892989" Properties=species:S:1:pos:R:3:forces:R:3 generation=8 composition=W6 config_type=C15_aa source_path=V-Cr-Ti-W-Zr/Fixed_Engrads/vcrtiwzr_fin_engrads/job_gen_6-2024-12-23/W/W6_C15_idx_3012 date_processed=2025-02-12T16:53:55.182119 structure_index=3012 structure_id=21665 energy=-74.90498504638671 stress="0.0040357785253234925 -0.005396227786474014 -0.007333829396494961 -0.005396227786474014 0.0005778326733651462 0.009112216350223752 -0.007333829396494961 0.009112216350223752 0.002721123216629576" calculation_info="_JSON {\"calculation_id\": 21664, \"calculator\": \"vasp\", \"calculation_source_path\": \"\", \"error\": null, \"status\": \"completed\", \"gpu_count\": null, \"parameters\": {}, \"date_started\": null, \"gpu_memory_mb\": null, \"model_version\": null, \"date_completed\": null, \"runtime_seconds\": null}" parent_id=21665 step=10 variance=0.005026161205023527 loss=0.005026161205023527 pbc="T T T"
W        0.97704106       0.98743833       0.97917461      -0.04089623       0.02609920       0.10533098
W        2.84053981       1.01331775       2.80733258      -0.08906319      -0.18686882       0.04968975
W        2.80743761       2.83693197       0.97522926       0.00016846       0.11549293      -0.18384369
W        0.96003798       2.84221850       2.84808152      -0.13364664      -0.09060692      -0.05475612
W        3.70306819       3.77607063       3.73168584       0.29100132       0.03357913       0.16024306
W        5.57072115       5.62526897       5.59462407      -0.02756374       0.10230460      -0.07666405
6
Lattice="-0.039091574 3.696543553 3.734988002 3.721031304 0.033039332 3.653451573 3.663537815 3.704388032 -0.012892989" Properties=species:S:1:pos:R:3:forces:R:3 generation=8 composition=W6 config_type=C15_aa source_path=V-Cr-Ti-W-Zr/Fixed_Engrads/vcrtiwzr_fin_engrads/job_gen_6-2024-12-23/W/W6_C15_idx_3012 date_processed=2025-02-12T16:53:55.182119 structure_index=3012 structure_id=21665 energy=-74.90380096435547 stress="0.0040357785253234925 -0.005396227786474014 -0.007333829396494961 -0.005396227786474014 0.0005778326733651462 0.009112216350223752 -0.007333829396494961 0.009112216350223752 0.002721123216629576" calculation_info="_JSON {\"calculation_id\": 21664, \"calculator\": \"vasp\", \"calculation_source_path\": \"\", \"error\": null, \"status\": \"completed\", \"gpu_count\": null, \"parameters\": {}, \"date_started\": null, \"gpu_memory_mb\": null, \"model_version\": null, \"date_completed\": null, \"runtime_seconds\": null}" parent_id=21665 step=11 variance=0.004864639136940241 loss=0.004864639136940241 pbc="T T T"
W        0.97967512       0.98996407       0.98171826      -0.04537959       0.03015524       0.11054750
W        2.84335220       1.01650109       2.80992546      -0.09440753      -0.19959481       0.05332644
W        2.80999976       2.83929136       0.97790425      -0.00247088       0.12432452      -0.19728668
W        0.96283368       2.84516942       2.85069434      -0.14416447      -0.09498720      -0.06060383
W        3.70324046       3.77861924       3.73309577       0.31674927       0.03646290       0.17192787
W        5.57342635       5.62789185       5.59718053      -0.03032682       0.10363929      -0.07791122
6
Lattice="-0.039091574 3.696543553 3.734988002 3.721031304 0.033039332 3.653451573 3.663537815 3.704388032 -0.012892989" Properties=species:S:1:pos:R:3:forces:R:3 generation=8 composition=W6 config_type=C15_aa source_path=V-Cr-Ti-W-Zr/Fixed_Engrads/vcrtiwzr_fin_engrads/job_gen_6-2024-12-23/W/W6_C15_idx_3012 date_processed=2025-02-12T16:53:55.182119 structure_index=3012 structure_id=21665 energy=-74.90267944335938 stress="0.0040357785253234925 -0.005396227786474014 -0.007333829396494961 -0.005396227786474014 0.0005778326733651462 0.009112216350223752 -0.007333829396494961 0.009112216350223752 0.002721123216629576" calculation_info="_JSON {\"calculation_id\": 21664, \"calculator\": \"vasp\", \"calculation_source_path\": \"\", \"error\": null, \"status\": \"completed\", \"gpu_count\": null, \"parameters\": {}, \"date_started\": null, \"gpu_memory_mb\": null, \"model_version\": null, \"date_completed\": null, \"runtime_seconds\": null}" parent_id=21665 step=12 variance=0.004812214057892561 loss=0.004812214057892561 pbc="T T T"
W        0.98204670       0.99223202       0.98401183      -0.04965285       0.03400709       0.11500368
W        2.84588068       1.01936003       2.81225641      -0.09912012      -0.21096912       0.05668958
W        2.81230798       2.84141028       0.98030908      -0.00509402       0.13242055      -0.20937750
W        0.96534865       2.84781446       2.85304452      -0.15372512      -0.09865977      -0.06600086
W        3.70339786       3.78090047       3.73436455       0.33976418       0.03927888       0.18240614
W        5.57579465       5.63033785       5.59944935      -0.03217192       0.10392229      -0.07872097
6
Lattice="-0.039091574 3.696543553 3.734988002 3.721031304 0.033039332 3.653451573 3.663537815 3.704388032 -0.012892989" Properties=species:S:1:pos:R:3:forces:R:3 generation=8 composition=W6 config_type=C15_aa source_path=V-Cr-Ti-W-Zr/Fixed_Engrads/vcrtiwzr_fin_engrads/job_gen_6-2024-12-23/W/W6_C15_idx_3012 date_processed=2025-02-12T16:53:55.182119 structure_index=3012 structure_id=21665 energy=-74.90161743164063 stress="0.0040357785253234925 -0.005396227786474014 -0.007333829396494961 -0.005396227786474014 0.0005778326733651462 0.009112216350223752 -0.007333829396494961 0.009112216350223752 0.002721123216629576" calculation_info="_JSON {\"calculation_id\": 21664, \"calculator\": \"vasp\", \"calculation_source_path\": \"\", \"error\": null, \"status\": \"completed\", \"gpu_count\": null, \"parameters\": {}, \"date_started\": null, \"gpu_memory_mb\": null, \"model_version\": null, \"date_completed\": null, \"runtime_seconds\": null}" parent_id=21665 step=13 variance=0.004850358236581087 loss=0.004850358236581087 pbc="T T T"
W        0.98418791       0.99427353       0.98608594      -0.05373378       0.03768524       0.11880600
W        2.84816021       1.02193401       2.81435742      -0.10328893      -0.22114229       0.05980859
W        2.81439348       2.84331811       0.98247676      -0.00772461       0.13987891      -0.22027941
W        0.96761736       2.85019086       2.85516407      -0.16245663      -0.10171439      -0.07101106
W        3.70354179       3.78294702       3.73550948       0.36038685       0.04203060       0.19182225
W        5.57786409       5.63263006       5.60146505      -0.03318283       0.10326201      -0.07914646
6
Lattice="-0.039091574 3.696543553 3.734988002 3.721031304 0.033039332 3.653451573 3.663537815 3.704388032 -0.012892989" Properties=species:S:1:pos:R:3:forces:R:3 generation=8 composition=W6 config_type=C15_aa source_path=V-Cr-Ti-W-Zr/Fixed_Engrads/vcrtiwzr_fin_engrads/job_gen_6-2024-12-23/W/W6_C15_idx_3012 date_processed=2025-02-12T16:53:55.182119 structure_index=3012 structure_id=21665 energy=-74.90061950683594 stress="0.0040357785253234925 -0.005396227786474014 -0.007333829396494961 -0.005396227786474014 0.0005778326733651462 0.009112216350223752 -0.007333829396494961 0.009112216350223752 0.002721123216629576" calculation_info="_JSON {\"calculation_id\": 21664, \"calculator\": \"vasp\", \"calculation_source_path\": \"\", \"error\": null, \"status\": \"completed\", \"gpu_count\": null, \"parameters\": {}, \"date_started\": null, \"gpu_memory_mb\": null, \"model_version\": null, \"date_completed\": null, \"runtime_seconds\": null}" parent_id=21665 step=14 variance=0.004971014801412821 loss=0.004971014801412821 pbc="T T T"
W        0.98612564       0.99611485       0.98796603      -0.05767711       0.04121427       0.12200554
W        2.85021994       1.02425610       2.81625534      -0.10697506      -0.23027249       0.06273117
W        2.81628236       2.84503924       0.98443483      -0.01036328       0.14680175      -0.23014507
W        0.96966849       2.85232979       2.85707985      -0.17045449      -0.10420392      -0.07568286
W        3.70367347       3.78478549       3.73654441       0.37889060       0.04472325       0.20030522
W        5.57966598       5.63478877       5.60325586      -0.03342066       0.10173716      -0.07921394
6
Lattice="-0.039091574 3.696543553 3.734988002 3.721031304 0.033039332 3.653451573 3.663537815 3.704388032 -0.012892989" Properties=species:S:1:pos:R:3:forces:R:3 generation=8 composition=W6 config_type=C15_aa source_path=V-Cr-Ti-W-Zr/Fixed_Engrads/vcrtiwzr_fin_engrads/job_gen_6-2024-12-23/W/W6_C15_idx_3012 date_processed=2025-02-12T16:53:55.182119 structure_index=3012 structure_id=21665 energy=-74.89969482421876 stress="0.0040357785253234925 -0.005396227786474014 -0.007333829396494961 -0.005396227786474014 0.0005778326733651462 0.009112216350223752 -0.007333829396494961 0.009112216350223752 0.002721123216629576" calculation_info="_JSON {\"calculation_id\": 21664, \"calculator\": \"vasp\", \"calculation_source_path\": \"\", \"error\": null, \"status\": \"completed\", \"gpu_count\": null, \"parameters\": {}, \"date_started\": null, \"gpu_memory_mb\": null, \"model_version\": null, \"date_completed\": null, \"runtime_seconds\": null}" parent_id=21665 step=15 variance=0.005175994709134102 loss=0.005175994709134102 pbc="T T T"
W        0.98788266       0.99777787       0.98967405      -0.06148099       0.04464053       0.12467714
W        2.85208454       1.02635418       2.81797280      -0.11025333      -0.23845787       0.06546104
W        2.81799676       2.84659429       0.98620662      -0.01305404       0.15323032      -0.23907478
W        0.97152642       2.85425721       2.85881470      -0.17780268      -0.10619897      -0.08008282
W        3.70379402       3.78643872       3.73748167       0.39551651       0.04737648       0.20795643
W        5.58122559       5.63683393       5.60484358      -0.03292545       0.09940944      -0.07893678
6
Lattice="-0.039091574 3.696543553 3.734988002 3.721031304 0.033039332 3.653451573 3.663537815 3.704388032 -0.012892989" Properties=species:S:1:pos:R:3:forces:R:3 generation=8 composition=W6 config_type=C15_aa source_path=V-Cr-Ti-W-Zr/Fixed_Engrads/vcrtiwzr_fin_engrads/job_gen_6-2024-12-23/W/W6_C15_idx_3012 date_processed=2025-02-12T16:53:55.182119 structure_index=3012 structure_id=21665 energy=-74.89883422851562 stress="0.0040357785253234925 -0.005396227786474014 -0.007333829396494961 -0.005396227786474014 0.0005778326733651462 0.009112216350223752 -0.007333829396494961 0.009112216350223752 0.002721123216629576" calculation_info="_JSON {\"calculation_id\": 21664, \"calculator\": \"vasp\", \"calculation_source_path\": \"\", \"error\": null, \"status\": \"completed\", \"gpu_count\": null, \"parameters\": {}, \"date_started\": null, \"gpu_memory_mb\": null, \"model_version\": null, \"date_completed\": null, \"runtime_seconds\": null}" parent_id=21665 step=16 variance=0.005476238671690226 loss=0.005476238671690226 pbc="T T T"
W        0.98947852       0.99928131       0.99122854      -0.06518752       0.04799875       0.12685546
W        2.85377492       1.02825180       2.81952910      -0.11315471      -0.24581644       0.06804095
W        2.81955578       2.84800080       0.98781219      -0.01581295       0.15925309      -0.24719796
W        0.97321204       2.85599515       2.86038820      -0.18458788      -0.10772522      -0.08425770
W        3.70390436       3.78792544       3.73833196       0.41046682       0.05000098       0.21485667
W        5.58256264       5.63878456       5.60624462      -0.03172370       0.09628882      -0.07829731
6