2
Lattice="30.0 0.0 0.0 0.0 18.0 0.0 0.0 0.0 17.0" Properties=species:S:1:pos:R:3:forces:R:3 generation=6 composition=W2 config_type=dimer source_path=V-Cr-Ti-W-Zr/Fixed_Engrads/vcrtiwzr_fin_engrads/job_gen_6-2024-12-23/W/W2_dimer_idx_8 date_processed=2025-02-12T16:54:12.110575 structure_index=8 structure_id=22009 energy=-13.813784 stress="4.136872248635424e-05 0.0 0.0 0.0 2.097147066296775e-06 0.0 0.0 0.0 2.072181029793242e-06" calculation_info="_JSON {\"calculation_id\": 22008, \"calculator\": \"vasp\", \"calculation_source_path\": \"\", \"error\": null, \"status\": \"completed\", \"gpu_count\": null, \"parameters\": {}, \"date_started\": null, \"gpu_memory_mb\": null, \"model_version\": null, \"date_completed\": null, \"runtime_seconds\": null}" pbc="T T T"
W        0.00000000       0.00000000       0.00000000       0.17757500       0.00000000       0.00000000
W        2.03000000       0.00000000       0.00000000      -0.17757500       0.00000000       0.00000000
2
Lattice="30.0 0.0 0.0 0.0 18.0 0.0 0.0 0.0 17.0" Properties=species:S:1:pos:R:3:forces:R:3 generation=8 composition=W2 config_type=dimer_aa source_path=V-Cr-Ti-W-Zr/Fixed_Engrads/vcrtiwzr_fin_engrads/job_gen_6-2024-12-23/W/W2_dimer_idx_8 date_processed=2025-02-12T16:54:12.110575 structure_index=8 structure_id=22009 energy=-13.74911994934082 stress="4.136872248635424e-05 0.0 0.0 0.0 2.097147066296775e-06 0.0 0.0 0.0 2.072181029793242e-06" calculation_info="_JSON {\"calculation_id\": 22008, \"calculator\": \"vasp\", \"calculation_source_path\": \"\", \"error\": null, \"status\": \"completed\", \"gpu_count\": null, \"parameters\": {}, \"date_started\": null, \"gpu_memory_mb\": null, \"model_version\": null, \"date_completed\": null, \"runtime_seconds\": null}" parent_id=22009 step=0 variance=0.9600000381469727 loss=0.9600000381469727 pbc="T T T"
W        0.00000000       0.00000000       0.00000000      -0.19221239       0.00000000       0.00000000
W        2.03000000       0.00000000       0.00000000       0.19221239       0.00000000       0.00000000
2
Lattice="30.0 0.0 0.0 0.0 18.0 0.0 0.0 0.0 17.0" Properties=species:S:1:pos:R:3:forces:R:3 generation=8 composition=W2 config_type=dimer_aa source_path=V-Cr-Ti-W-Zr/Fixed_Engrads/vcrtiwzr_fin_engrads/job_gen_6-2024-12-23/W/W2_dimer_idx_8 date_processed=2025-02-12T16:54:12.110575 structure_index=8 structure_id=22009 energy=-13.74911994934082 stress="4.136872248635424e-05 0.0 0.0 0.0 2.097147066296775e-06 0.0 0.0 0.0 2.072181029793242e-06" calculation_info="_JSON {\"calculation_id\": 22008, \"calculator\": \"vasp\", \"calculation_source_path\": \"\", \"error\": null, \"status\": \"completed\", \"gpu_count\": null, \"parameters\": {}, \"date_started\": null, \"gpu_memory_mb\": null, \"model_version\": null, \"date_completed\": null, \"runtime_seconds\": null}" parent_id=22009 step=1 variance=0.9600000381469727 loss=0.9600000381469727 pbc="T T T"
W        0.00000000       0.00000000       0.00000000      -0.19221239       0.00000000       0.00000000
W        2.03000000       0.00000000       0.00000000       0.19221239       0.00000000       0.00000000
2
Lattice="30.0 0.0 0.0 0.0 18.0 0.0 0.0 0.0 17.0" Properties=species:S:1:pos:R:3:forces:R:3 generation=8 composition=W2 config_type=dimer_aa source_path=V-Cr-Ti-W-Zr/Fixed_Engrads/vcrtiwzr_fin_engrads/job_gen_6-2024-12-23/W/W2_dimer_idx_8 date_processed=2025-02-12T16:54:12.110575 structure_index=8 structure_id=22009 energy=-13.74911994934082 stress="4.136872248635424e-05 0.0 0.0 0.0 2.097147066296775e-06 0.0 0.0 0.0 2.072181029793242e-06" calculation_info="_JSON {\"calculation_id\": 22008, \"calculator\": \"vasp\", \"calculation_source_path\": \"\", \"error\": null, \"status\": \"completed\", \"gpu_count\": null, \"parameters\": {}, \"date_started\": null, \"gpu_memory_mb\": null, \"model_version\": null, \"date_completed\": null, \"runtime_seconds\": null}" parent_id=22009 step=2 variance=0.9600000381469727 loss=0.9600000381469727 pbc="T T T"
W        0.00000000       0.00000000       0.00000000      -0.19221239       0.00000000       0.00000000
W        2.03000000       0.00000000       0.00000000       0.19221239       0.00000000       0.00000000
2
Lattice="30.0 0.0 0.0 0.0 18.0 0.0 0.0 0.0 17.0" Properties=species:S:1:pos:R:3:forces:R:3 generation=8 composition=W2 config_type=dimer_aa source_path=V-Cr-Ti-W-Zr/Fixed_Engrads/vcrtiwzr_fin_engrads/job_gen_6-2024-12-23/W/W2_dimer_idx_8 date_processed=2025-02-12T16:54:12.110575 structure_index=8 structure_id=22009 energy=-13.74911994934082 stress="4.136872248635424e-05 0.0 0.0 0.0 2.097147066296775e-06 0.0 0.0 0.0 2.072181029793242e-06" calculation_info="_JSON {\"calculation_id\": 22008, \"calculator\": \"vasp\", \"calculation_source_path\": \"\", \"error\": null, \"status\": \"completed\", \"gpu_count\": null, \"parameters\": {}, \"date_started\": null, \"gpu_memory_mb\": null, \"model_version\": null, \"date_completed\": null, \"runtime_seconds\": null}" parent_id=22009 step=3 variance=0.9600000381469727 loss=0.9600000381469727 pbc="T T T"
W        0.00000000       0.00000000       0.00000000      -0.19221239       0.00000000       0.00000000
W        2.03000000       0.00000000       0.00000000       0.19221239       0.00000000       0.00000000
2
Lattice="30.0 0.0 0.0 0.0 18.0 0.0 0.0 0.0 17.0" Properties=species:S:1:pos:R:3:forces:R:3 generation=8 composition=W2 config_type=dimer_aa source_path=V-Cr-Ti-W-Zr/Fixed_Engrads/vcrtiwzr_fin_engrads/job_gen_6-2024-12-23/W/W2_dimer_idx_8 date_processed=2025-02-12T16:54:12.110575 structure_index=8 structure_id=22009 energy=-13.74911994934082 stress="4.136872248635424e-05 0.0 0.0 0.0 2.097147066296775e-06 0.0 0.0 0.0 2.072181029793242e-06" calculation_info="_JSON {\"calculation_id\": 22008, \"calculator\": \"vasp\", \"calculation_source_path\": \"\", \"error\": null, \"status\": \"completed\", \"gpu_count\": null, \"parameters\": {}, \"date_started\": null, \"gpu_memory_mb\": null, \"model_version\": null, \"date_completed\": null, \"runtime_seconds\": null}" parent_id=22009 step=4 variance=0.9600000381469727 loss=0.9600000381469727 pbc="T T T"
W        0.00000000       0.00000000       0.00000000      -0.19221239       0.00000000       0.00000000
W        2.03000000       0.00000000       0.00000000       0.19221239       0.00000000       0.00000000
2
Lattice="30.0 0.0 0.0 0.0 18.0 0.0 0.0 0.0 17.0" Properties=species:S:1:pos:R:3:forces:R:3 generation=8 composition=W2 config_type=dimer_aa source_path=V-Cr-Ti-W-Zr/Fixed_Engrads/vcrtiwzr_fin_engrads/job_gen_6-2024-12-23/W/W2_dimer_idx_8 date_processed=2025-02-12T16:54:12.110575 structure_index=8 structure_id=22009 energy=-13.74911994934082 stress="4.136872248635424e-05 0.0 0.0 0.0 2.097147066296775e-06 0.0 0.0 0.0 2.072181029793242e-06" calculation_info="_JSON {\"calculation_id\": 22008, \"calculator\": \"vasp\", \"calculation_source_path\": \"\", \"error\": null, \"status\": \"completed\", \"gpu_count\": null, \"parameters\": {}, \"date_started\": null, \"gpu_memory_mb\": null, \"model_version\": null, \"date_completed\": null, \"runtime_seconds\": null}" parent_id=22009 step=5 variance=0.9600000381469727 loss=0.9600000381469727 pbc="T T T"
W        0.00000000       0.00000000       0.00000000      -0.19221239       0.00000000       0.00000000
W        2.03000000       0.00000000       0.00000000       0.19221239       0.00000000       0.00000000
2
Lattice="30.0 0.0 0.0 0.0 18.0 0.0 0.0 0.0 17.0" Properties=species:S:1:pos:R:3:forces:R:3 generation=8 composition=W2 config_type=dimer_aa source_path=V-Cr-Ti-W-Zr/Fixed_Engrads/vcrtiwzr_fin_engrads/job_gen_6-2024-12-23/W/W2_dimer_idx_8 date_processed=2025-02-12T16:54:12.110575 structure_index=8 structure_id=22009 energy=-13.74911994934082 stress="4.136872248635424e-05 0.0 0.0 0.0 2.097147066296775e-06 0.0 0.0 0.0 2.072181029793242e-06" calculation_info="_JSON {\"calculation_id\": 22008, \"calculator\": \"vasp\", \"calculation_source_path\": \"\", \"error\": null, \"status\": \"completed\", \"gpu_count\": null, \"parameters\": {}, \"date_started\": null, \"gpu_memory_mb\": null, \"model_version\": null, \"date_completed\": null, \"runtime_seconds\": null}" parent_id=22009 step=6 variance=0.9600000381469727 loss=0.9600000381469727 pbc="T T T"
W        0.00000000       0.00000000       0.00000000      -0.19221239       0.00000000       0.00000000
W        2.03000000       0.00000000       0.00000000       0.19221239       0.00000000       0.00000000
2
Lattice="30.0 0.0 0.0 0.0 18.0 0.0 0.0 0.0 17.0" Properties=species:S:1:pos:R:3:forces:R:3 generation=8 composition=W2 config_type=dimer_aa source_path=V-Cr-Ti-W-Zr/Fixed_Engrads/vcrtiwzr_fin_engrads/job_gen_6-2024-12-23/W/W2_dimer_idx_8 date_processed=2025-02-12T16:54:12.110575 structure_index=8 structure_id=22009 energy=-13.74911994934082 stress="4.136872248635424e-05 0.0 0.0 0.0 2.097147066296775e-06 0.0 0.0 0.0 2.072181029793242e-06" calculation_info="_JSON {\"calculation_id\": 22008, \"calculator\": \"vasp\", \"calculation_source_path\": \"\", \"error\": null, \"status\": \"completed\", \"gpu_count\": null, \"parameters\": {}, \"date_started\": null, \"gpu_memory_mb\": null, \"model_version\": null, \"date_completed\": null, \"runtime_seconds\": null}" parent_id=22009 step=7 variance=0.9600000381469727 loss=0.9600000381469727 pbc="T T T"
W        0.00000000       0.00000000       0.00000000      -0.19221239       0.00000000       0.00000000
W        2.03000000       0.00000000       0.00000000       0.19221239       0.00000000       0.00000000
2
Lattice="30.0 0.0 0.0 0.0 18.0 0.0 0.0 0.0 17.0" Properties=species:S:1:pos:R:3:forces:R:3 generation=8 composition=W2 config_type=dimer_aa source_path=V-Cr-Ti-W-Zr/Fixed_Engrads/vcrtiwzr_fin_engrads/job_gen_6-2024-12-23/W/W2_dimer_idx_8 date_processed=2025-02-12T16:54:12.110575 structure_index=8 structure_id=22009 energy=-13.74911994934082 stress="4.136872248635424e-05 0.0 0.0 0.0 2.097147066296775e-06 0.0 0.0 0.0 2.072181029793242e-06" calculation_info="_JSON {\"calculation_id\": 22008, \"calculator\": \"vasp\", \"calculation_source_path\": \"\", \"error\": null, \"status\": \"completed\", \"gpu_count\": null, \"parameters\": {}, \"date_started\": null, \"gpu_memory_mb\": null, \"model_version\": null, \"date_completed\": null, \"runtime_seconds\": null}" parent_id=22009 step=8 variance=0.9600000381469727 loss=0.9600000381469727 pbc="T T T"
W        0.00000000       0.00000000       0.00000000      -0.19221239       0.00000000       0.00000000
W        2.03000000       0.00000000       0.00000000       0.19221239       0.00000000       0.00000000
2
Lattice="30.0 0.0 0.0 0.0 18.0 0.0 0.0 0.0 17.0" Properties=species:S:1:pos:R:3:forces:R:3 generation=8 composition=W2 config_type=dimer_aa source_path=V-Cr-Ti-W-Zr/Fixed_Engrads/vcrtiwzr_fin_engrads/job_gen_6-2024-12-23/W/W2_dimer_idx_8 date_processed=2025-02-12T16:54:12.110575 structure_index=8 structure_id=22009 energy=-13.74911994934082 stress="4.136872248635424e-05 0.0 0.0 0.0 2.097147066296775e-06 0.0 0.0 0.0 2.072181029793242e-06" calculation_info="_JSON {\"calculation_id\": 22008, \"calculator\": \"vasp\", \"calculation_source_path\": \"\", \"error\": null, \"status\": \"completed\", \"gpu_count\": null, \"parameters\": {}, \"date_started\": null, \"gpu_memory_mb\": null, \"model_version\": null, \"date_completed\": null, \"runtime_seconds\": null}" parent_id=22009 step=9 variance=0.9600000381469727 loss=0.9600000381469727 pbc="T T T"
W        0.00000000       0.00000000       0.00000000      -0.19221239       0.00000000       0.00000000
W        2.03000000       0.00000000       0.00000000       0.19221239       0.00000000       0.00000000
2
Lattice="30.0 0.0 0.0 0.0 18.0 0.0 0.0 0.0 17.0" Properties=species:S:1:pos:R:3:forces:R:3 generation=8 composition=W2 config_type=dimer_aa source_path=V-Cr-Ti-W-Zr/Fixed_Engrads/vcrtiwzr_fin_engrads/job_gen_6-2024-12-23/W/W2_dimer_idx_8 date_processed=2025-02-12T16:54:12.110575 structure_index=8 structure_id=22009 energy=-13.74911994934082 stress="4.136872248635424e-05 0.0 0.0 0.0 2.097147066296775e-06 0.0 0.0 0.0 2.072181029793242e-06" calculation_info="_JSON {\"calculation_id\": 22008, \"calculator\": \"vasp\", \"calculation_source_path\": \"\", \"error\": null, \"status\": \"completed\", \"gpu_count\": null, \"parameters\": {}, \"date_started\": null, \"gpu_memory_mb\": null, \"model_version\": null, \"date_completed\": null, \"runtime_seconds\": null}" parent_id=22009 step=10 variance=0.9600000381469727 loss=0.9600000381469727 pbc="T T T"
W        0.00000000       0.00000000       0.00000000      -0.19221239       0.00000000       0.00000000
W        2.03000000       0.00000000       0.00000000       0.19221239       0.00000000       0.00000000
2
Lattice="30.0 0.0 0.0 0.0 18.0 0.0 0.0 0.0 17.0" Properties=species:S:1:pos:R:3:forces:R:3 generation=8 composition=W2 config_type=dimer_aa source_path=V-Cr-Ti-W-Zr/Fixed_Engrads/vcrtiwzr_fin_engrads/job_gen_6-2024-12-23/W/W2_dimer_idx_8 date_processed=2025-02-12T16:54:12.110575 structure_index=8 structure_id=22009 energy=-13.74911994934082 stress="4.136872248635424e-05 0.0 0.0 0.0 2.097147066296775e-06 0.0 0.0 0.0 2.072181029793242e-06" calculation_info="_JSON {\"calculation_id\": 22008, \"calculator\": \"vasp\", \"calculation_source_path\": \"\", \"error\": null, \"status\": \"completed\", \"gpu_count\": null, \"parameters\": {}, \"date_started\": null, \"gpu_memory_mb\": null, \"model_version\": null, \"date_completed\": null, \"runtime_seconds\": null}" parent_id=22009 step=11 variance=0.9600000381469727 loss=0.9600000381469727 pbc="T T T"
W        0.00000000       0.00000000       0.00000000      -0.19221239       0.00000000       0.00000000
W        2.03000000       0.00000000       0.00000000       0.19221239       0.00000000       0.00000000
2
Lattice="30.0 0.0 0.0 0.0 18.0 0.0 0.0 0.0 17.0" Properties=species:S:1:pos:R:3:forces:R:3 generation=8 composition=W2 config_type=dimer_aa source_path=V-Cr-Ti-W-Zr/Fixed_Engrads/vcrtiwzr_fin_engrads/job_gen_6-2024-12-23/W/W2_dimer_idx_8 date_processed=2025-02-12T16:54:12.110575 structure_index=8 structure_id=22009 energy=-13.74911994934082 stress="4.136872248635424e-05 0.0 0.0 0.0 2.097147066296775e-06 0.0 0.0 0.0 2.072181029793242e-06" calculation_info="_JSON {\"calculation_id\": 22008, \"calculator\": \"vasp\", \"calculation_source_path\": \"\", \"error\": null, \"status\": \"completed\", \"gpu_count\": null, \"parameters\": {}, \"date_started\": null, \"gpu_memory_mb\": null, \"model_version\": null, \"date_completed\": null, \"runtime_seconds\": null}" parent_id=22009 step=12 variance=0.9600000381469727 loss=0.9600000381469727 pbc="T T T"
W        0.00000000       0.00000000       0.00000000      -0.19221239       0.00000000       0.00000000
W        2.03000000       0.00000000       0.00000000       0.19221239       0.00000000       0.00000000
2
Lattice="30.0 0.0 0.0 0.0 18.0 0.0 0.0 0.0 17.0" Properties=species:S:1:pos:R:3:forces:R:3 generation=8 composition=W2 config_type=dimer_aa source_path=V-Cr-Ti-W-Zr/Fixed_Engrads/vcrtiwzr_fin_engrads/job_gen_6-2024-12-23/W/W2_dimer_idx_8 date_processed=2025-02-12T16:54:12.110575 structure_index=8 structure_id=22009 energy=-13.74911994934082 stress="4.136872248635424e-05 0.0 0.0 0.0 2.097147066296775e-06 0.0 0.0 0.0 2.072181029793242e-06" calculation_info="_JSON {\"calculation_id\": 22008, \"calculator\": \"vasp\", \"calculation_source_path\": \"\", \"error\": null, \"status\": \"completed\", \"gpu_count\": null, \"parameters\": {}, \"date_started\": null, \"gpu_memory_mb\": null, \"model_version\": null, \"date_completed\": null, \"runtime_seconds\": null}" parent_id=22009 step=13 variance=0.9600000381469727 loss=0.9600000381469727 pbc="T T T"
W        0.00000000       0.00000000       0.00000000      -0.19221239       0.00000000       0.00000000
W        2.03000000       0.00000000       0.00000000       0.19221239       0.00000000       0.00000000
2
Lattice="30.0 0.0 0.0 0.0 18.0 0.0 0.0 0.0 17.0" Properties=species:S:1:pos:R:3:forces:R:3 generation=8 composition=W2 config_type=dimer_aa source_path=V-Cr-Ti-W-Zr/Fixed_Engrads/vcrtiwzr_fin_engrads/job_gen_6-2024-12-23/W/W2_dimer_idx_8 date_processed=2025-02-12T16:54:12.110575 structure_index=8 structure_id=22009 energy=-13.74911994934082 stress="4.136872248635424e-05 0.0 0.0 0.0 2.097147066296775e-06 0.0 0.0 0.0 2.072181029793242e-06" calculation_info="_JSON {\"calculation_id\": 22008, \"calculator\": \"vasp\", \"calculation_source_path\": \"\", \"error\": null, \"status\": \"completed\", \"gpu_count\": null, \"parameters\": {}, \"date_started\": null, \"gpu_memory_mb\": null, \"model_version\": null, \"date_completed\": null, \"runtime_seconds\": null}" parent_id=22009 step=14 variance=0.9600000381469727 loss=0.9600000381469727 pbc="T T T"
W        0.00000000       0.00000000       0.00000000      -0.19221239       0.00000000       0.00000000
W        2.03000000       0.00000000       0.00000000       0.19221239       0.00000000       0.00000000
2
Lattice="30.0 0.0 0.0 0.0 18.0 0.0 0.0 0.0 17.0" Properties=species:S:1:pos:R:3:forces:R:3 generation=8 composition=W2 config_type=dimer_aa source_path=V-Cr-Ti-W-Zr/Fixed_Engrads/vcrtiwzr_fin_engrads/job_gen_6-2024-12-23/W/W2_dimer_idx_8 date_processed=2025-02-12T16:54:12.110575 structure_index=8 structure_id=22009 energy=-13.74911994934082 stress="4.136872248635424e-05 0.0 0.0 0.0 2.097147066296775e-06 0.0 0.0 0.0 2.072181029793242e-06" calculation_info="_JSON {\"calculation_id\": 22008, \"calculator\": \"vasp\", \"calculation_source_path\": \"\", \"error\": null, \"status\": \"completed\", \"gpu_count\": null, \"parameters\": {}, \"date_started\": null, \"gpu_memory_mb\": null, \"model_version\": null, \"date_completed\": null, \"runtime_seconds\": null}" parent_id=22009 step=15 variance=0.9600000381469727 loss=0.9600000381469727 pbc="T T T"
W        0.00000000       0.00000000       0.00000000      -0.19221239       0.00000000       0.00000000
W        2.03000000       0.00000000       0.00000000       0.19221239       0.00000000       0.00000000
2
Lattice="30.0 0.0 0.0 0.0 18.0 0.0 0.0 0.0 17.0" Properties=species:S:1:pos:R:3:forces:R:3 generation=8 composition=W2 config_type=dimer_aa source_path=V-Cr-Ti-W-Zr/Fixed_Engrads/vcrtiwzr_fin_engrads/job_gen_6-2024-12-23/W/W2_dimer_idx_8 date_processed=2025-02-12T16:54:12.110575 structure_index=8 structure_id=22009 energy=-13.74911994934082 stress="4.136872248635424e-05 0.0 0.0 0.0 2.097147066296775e-06 0.0 0.0 0.0 2.072181029793242e-06" calculation_info="_JSON {\"calculation_id\": 22008, \"calculator\": \"vasp\", \"calculation_source_path\": \"\", \"error\": null, \"status\": \"completed\", \"gpu_count\": null, \"parameters\": {}, \"date_started\": null, \"gpu_memory_mb\": null, \"model_version\": null, \"date_completed\": null, \"runtime_seconds\": null}" parent_id=22009 step=16 variance=0.9600000381469727 loss=0.9600000381469727 pbc="T T T"
W        0.00000000       0.00000000       0.00000000      -0.19221239       0.00000000       0.00000000
W        2.03000000       0.00000000       0.00000000       0.19221239       0.00000000       0.00000000
2
Lattice="30.0 0.0 0.0 0.0 18.0 0.0 0.0 0.0 17.0" Properties=species:S:1:pos:R:3:forces:R:3 generation=8 composition=W2 config_type=dimer_aa source_path=V-Cr-Ti-W-Zr/Fixed_Engrads/vcrtiwzr_fin_engrads/job_gen_6-2024-12-23/W/W2_dimer_idx_8 date_processed=2025-02-12T16:54:12.110575 structure_index=8 structure_id=22009 energy=-13.74911994934082 stress="4.136872248635424e-05 0.0 0.0 0.0 2.097147066296775e-06 0.0 0.0 0.0 2.072181029793242e-06" calculation_info="_JSON {\"calculation_id\": 22008, \"calculator\": \"vasp\", \"calculation_source_path\": \"\", \"error\": null, \"status\": \"completed\", \"gpu_count\": null, \"parameters\": {}, \"date_started\": null, \"gpu_memory_mb\": null, \"model_version\": null, \"date_completed\": null, \"runtime_seconds\": null}" parent_id=22009 step=17 variance=0.9600000381469727 loss=0.9600000381469727 pbc="T T T"
W        0.00000000       0.00000000       0.00000000      -0.19221239       0.00000000       0.00000000
W        2.03000000       0.00000000       0.00000000       0.19221239       0.00000000       0.00000000
2
Lattice="30.0 0.0 0.0 0.0 18.0 0.0 0.0 0.0 17.0" Properties=species:S:1:pos:R:3:forces:R:3 generation=8 composition=W2 config_type=dimer_aa source_path=V-Cr-Ti-W-Zr/Fixed_Engrads/vcrtiwzr_fin_engrads/job_gen_6-2024-12-23/W/W2_dimer_idx_8 date_processed=2025-02-12T16:54:12.110575 structure_index=8 structure_id=22009 energy=-13.74911994934082 stress="4.136872248635424e-05 0.0 0.0 0.0 2.097147066296775e-06 0.0 0.0 0.0 2.072181029793242e-06" calculation_info="_JSON {\"calculation_id\": 22008, \"calculator\": \"vasp\", \"calculation_source_path\": \"\", \"error\": null, \"status\": \"completed\", \"gpu_count\": null, \"parameters\": {}, \"date_started\": null, \"gpu_memory_mb\": null, \"model_version\": null, \"date_completed\": null, \"runtime_seconds\": null}" parent_id=22009 step=18 variance=0.9600000381469727 loss=0.9600000381469727 pbc="T T T"
W        0.00000000       0.00000000       0.00000000      -0.19221239       0.00000000       0.00000000
W        2.03000000       0.00000000       0.00000000       0.19221239       0.00000000       0.00000000
2
Lattice="30.0 0.0 0.0 0.0 18.0 0.0 0.0 0.0 17.0" Properties=species:S:1:pos:R:3:forces:R:3 generation=8 composition=W2 config_type=dimer_aa source_path=V-Cr-Ti-W-Zr/Fixed_Engrads/vcrtiwzr_fin_engrads/job_gen_6-2024-12-23/W/W2_dimer_idx_8 date_processed=2025-02-12T16:54:12.110575 structure_index=8 structure_id=22009 energy=-13.74911994934082 stress="4.136872248635424e-05 0.0 0.0 0.0 2.097147066296775e-06 0.0 0.0 0.0 2.072181029793242e-06" calculation_info="_JSON {\"calculation_id\": 22008, \"calculator\": \"vasp\", \"calculation_source_path\": \"\", \"error\": null, \"status\": \"completed\", \"gpu_count\": null, \"parameters\": {}, \"date_started\": null, \"gpu_memory_mb\": null, \"model_version\": null, \"date_completed\": null, \"runtime_seconds\": null}" parent_id=22009 step=19 variance=0.9600000381469727 loss=0.9600000381469727 pbc="T T T"
W        0.00000000       0.00000000       0.00000000      -0.19221239       0.00000000       0.00000000
W        2.03000000       0.00000000       0.00000000       0.19221239       0.00000000       0.00000000
2
Lattice="30.0 0.0 0.0 0.0 18.0 0.0 0.0 0.0 17.0" Properties=species:S:1:pos:R:3:forces:R:3 generation=8 composition=W2 config_type=dimer_aa source_path=V-Cr-Ti-W-Zr/Fixed_Engrads/vcrtiwzr_fin_engrads/job_gen_6-2024-12-23/W/W2_dimer_idx_8 date_processed=2025-02-12T16:54:12.110575 structure_index=8 structure_id=22009 energy=-13.74911994934082 stress="4.136872248635424e-05 0.0 0.0 0.0 2.097147066296775e-06 0.0 0.0 0.0 2.072181029793242e-06" calculation_info="_JSON {\"calculation_id\": 22008, \"calculator\": \"vasp\", \"calculation_source_path\": \"\", \"error\": null, \"status\": \"completed\", \"gpu_count\": null, \"parameters\": {}, \"date_started\": null, \"gpu_memory_mb\": null, \"model_version\": null, \"date_completed\": null, \"runtime_seconds\": null}" parent_id=22009 step=20 variance=0.9600000381469727 loss=0.9600000381469727 pbc="T T T"
W        0.00000000       0.00000000       0.00000000      -0.19221239       0.00000000       0.00000000
W        2.03000000       0.00000000       0.00000000       0.19221239       0.00000000       0.00000000
2
Lattice="30.0 0.0 0.0 0.0 18.0 0.0 0.0 0.0 17.0" Properties=species:S:1:pos:R:3:forces:R:3 generation=8 composition=W2 config_type=dimer_aa source_path=V-Cr-Ti-W-Zr/Fixed_Engrads/vcrtiwzr_fin_engrads/job_gen_6-2024-12-23/W/W2_dimer_idx_8 date_processed=2025-02-12T16:54:12.110575 structure_index=8 structure_id=22009 energy=-13.575972366333009 stress="4.136872248635424e-05 0.0 0.0 0.0 2.097147066296775e-06 0.0 0.0 0.0 2.072181029793242e-06" calculation_info="_JSON {\"calculation_id\": 22008, \"calculator\": \"vasp\", \"calculation_source_path\": \"\", \"error\": null, \"status\": \"completed\", \"gpu_count\": null, \"parameters\": {}, \"date_started\": null, \"gpu_memory_mb\": null, \"model_version\": null, \"date_completed\": null, \"runtime_seconds\": null}" parent_id=22009 step=21 variance=2.1649349509586145e-16 loss=2.1649349509586145e-16 pbc="T T T"
W        0.02850339       0.01096671      -0.00587497      -4.65378857       0.17307463       0.16896525
W        1.97804462      -0.06153682      -0.07665701       4.65378857      -0.17307463      -0.16896525
2
Lattice="30.0 0.0 0.0 0.0 18.0 0.0 0.0 0.0 17.0" Properties=species:S:1:pos:R:3:forces:R:3 generation=8 composition=W2 config_type=dimer_aa source_path=V-Cr-Ti-W-Zr/Fixed_Engrads/vcrtiwzr_fin_engrads/job_gen_6-2024-12-23/W/W2_dimer_idx_8 date_processed=2025-02-12T16:54:12.110575 structure_index=8 structure_id=22009 energy=-13.576094245910644 stress="4.136872248635424e-05 0.0 0.0 0.0 2.097147066296775e-06 0.0 0.0 0.0 2.072181029793242e-06" calculation_info="_JSON {\"calculation_id\": 22008, \"calculator\": \"vasp\", \"calculation_source_path\": \"\", \"error\": null, \"status\": \"completed\", \"gpu_count\": null, \"parameters\": {}, \"date_started\": null, \"gpu_memory_mb\": null, \"model_version\": null, \"date_completed\": null, \"runtime_seconds\": null}" parent_id=22009 step=22 variance=1.5265567647387086e-15 loss=1.5265567647387086e-15 pbc="T T T"
W        0.02851633       0.01097245      -0.00586842      -4.65188885       0.17293420       0.16884528
W        1.97808545      -0.06150288      -0.07663011       4.65188885      -0.17293420      -0.16884528
2
Lattice="30.0 0.0 0.0 0.0 18.0 0.0 0.0 0.0 17.0" Properties=species:S:1:pos:R:3:forces:R:3 generation=8 composition=W2 config_type=dimer_aa source_path=V-Cr-Ti-W-Zr/Fixed_Engrads/vcrtiwzr_fin_engrads/job_gen_6-2024-12-23/W/W2_dimer_idx_8 date_processed=2025-02-12T16:54:12.110575 structure_index=8 structure_id=22009 energy=-13.57618465423584 stress="4.136872248635424e-05 0.0 0.0 0.0 2.097147066296775e-06 0.0 0.0 0.0 2.072181029793242e-06" calculation_info="_JSON {\"calculation_id\": 22008, \"calculator\": \"vasp\", \"calculation_source_path\": \"\", \"error\": null, \"status\": \"completed\", \"gpu_count\": null, \"parameters\": {}, \"date_started\": null, \"gpu_memory_mb\": null, \"model_version\": null, \"date_completed\": null, \"runtime_seconds\": null}" parent_id=22009 step=23 variance=4.34929903778223e-15 loss=4.34929903778223e-15 pbc="T T T"
W        0.02851855       0.01098238      -0.00585762      -4.65047312       0.17285559       0.16874339
W        1.97810829      -0.06148284      -0.07659890       4.65047312      -0.17285559      -0.16874339
2
Lattice="30.0 0.0 0.0 0.0 18.0 0.0 0.0 0.0 17.0" Properties=species:S:1:pos:R:3:forces:R:3 generation=8 composition=W2 config_type=dimer_aa source_path=V-Cr-Ti-W-Zr/Fixed_Engrads/vcrtiwzr_fin_engrads/job_gen_6-2024-12-23/W/W2_dimer_idx_8 date_processed=2025-02-12T16:54:12.110575 structure_index=8 structure_id=22009 energy=-13.576268005371094 stress="4.136872248635424e-05 0.0 0.0 0.0 2.097147066296775e-06 0.0 0.0 0.0 2.072181029793242e-06" calculation_info="_JSON {\"calculation_id\": 22008, \"calculator\": \"vasp\", \"calculation_source_path\": \"\", \"error\": null, \"status\": \"completed\", \"gpu_count\": null, \"parameters\": {}, \"date_started\": null, \"gpu_memory_mb\": null, \"model_version\": null, \"date_completed\": null, \"runtime_seconds\": null}" parent_id=22009 step=24 variance=1.4682699924184169e-15 loss=1.4682699924184169e-15 pbc="T T T"
W        0.02851737       0.01098350      -0.00585604      -4.64916086       0.17278998       0.16868183
W        1.97812541      -0.06147533      -0.07659213       4.64916086      -0.17278998      -0.16868183
2
Lattice="30.0 0.0 0.0 0.0 18.0 0.0 0.0 0.0 17.0" Properties=species:S:1:pos:R:3:forces:R:3 generation=8 composition=W2 config_type=dimer_aa source_path=V-Cr-Ti-W-Zr/Fixed_Engrads/vcrtiwzr_fin_engrads/job_gen_6-2024-12-23/W/W2_dimer_idx_8 date_processed=2025-02-12T16:54:12.110575 structure_index=8 structure_id=22009 energy=-13.576315307617188 stress="4.136872248635424e-05 0.0 0.0 0.0 2.097147066296775e-06 0.0 0.0 0.0 2.072181029793242e-06" calculation_info="_JSON {\"calculation_id\": 22008, \"calculator\": \"vasp\", \"calculation_source_path\": \"\", \"error\": null, \"status\": \"completed\", \"gpu_count\": null, \"parameters\": {}, \"date_started\": null, \"gpu_memory_mb\": null, \"model_version\": null, \"date_completed\": null, \"runtime_seconds\": null}" parent_id=22009 step=25 variance=1.6958656277632793e-15 loss=1.6958656277632793e-15 pbc="T T T"
W        0.02852098       0.01098448      -0.00585265      -4.64842939       0.17275099       0.16864064
W        1.97813958      -0.06146978      -0.07658298       4.64842939      -0.17275099      -0.16864064
2
Lattice="30.0 0.0 0.0 0.0 18.0 0.0 0.0 0.0 17.0" Properties=species:S:1:pos:R:3:forces:R:3 generation=8 composition=W2 config_type=dimer_aa source_path=V-Cr-Ti-W-Zr/Fixed_Engrads/vcrtiwzr_fin_engrads/job_gen_6-2024-12-23/W/W2_dimer_idx_8 date_processed=2025-02-12T16:54:12.110575 structure_index=8 structure_id=22009 energy=-13.576349830627441 stress="4.136872248635424e-05 0.0 0.0 0.0 2.097147066296775e-06 0.0 0.0 0.0 2.072181029793242e-06" calculation_info="_JSON {\"calculation_id\": 22008, \"calculator\": \"vasp\", \"calculation_source_path\": \"\", \"error\": null, \"status\": \"completed\", \"gpu_count\": null, \"parameters\": {}, \"date_started\": null, \"gpu_memory_mb\": null, \"model_version\": null, \"date_completed\": null, \"runtime_seconds\": null}" parent_id=22009 step=26 variance=1.6098234386460362e-16 loss=1.6098234386460362e-16 pbc="T T T"
W        0.02852326       0.01098485      -0.00584719      -4.64788151       0.17271793       0.16860102
W        1.97814987      -0.06146439      -0.07656952       4.64788151      -0.17271793      -0.16860102
2