6
Lattice="0.056873607 3.642634292 3.681010018 3.689849434 0.066088492 3.703681052 3.760780938 3.652229423 0.033162394" Properties=species:S:1:pos:R:3:forces:R:3 generation=6 composition=W6 config_type=C15 source_path=V-Cr-Ti-W-Zr/Fixed_Engrads/vcrtiwzr_fin_engrads/job_gen_6-2024-12-23/W/W6_C15_idx_3050 date_processed=2025-02-12T16:53:56.724483 structure_index=3050 structure_id=21700 energy=-74.85896 stress="-0.049094000610697214 0.02166957721718867 0.004500427672199872 0.02166957721718867 -0.060040427972271666 0.007412828177501264 0.004500427672199872 0.007412828177501264 -0.0511159374920271" calculation_info="_JSON {\"calculation_id\": 21699, \"calculator\": \"vasp\", \"calculation_source_path\": \"\", \"error\": null, \"status\": \"completed\", \"gpu_count\": null, \"parameters\": {}, \"date_started\": null, \"gpu_memory_mb\": null, \"model_version\": null, \"date_completed\": null, \"runtime_seconds\": null}" pbc="T T T"
W        0.93844000       0.92012000       0.92723000       0.00000000       0.00000000       0.00000000
W        2.78336000       0.95316000       2.77907000       0.00000000       0.00000000       0.00000000
W        2.81883000       2.74623000       0.94381000       0.00000000       0.00000000       0.00000000
W        0.96687000       2.74144000       2.76774000       0.00000000       0.00000000       0.00000000
W        3.75375000       3.68048000       3.70893000      -0.02196700      -0.01290300      -0.07231000
W        5.63063000       5.52071000       5.56339000       0.02196700       0.01290300       0.07231000
6
Lattice="0.056873607 3.642634292 3.681010018 3.689849434 0.066088492 3.703681052 3.760780938 3.652229423 0.033162394" Properties=species:S:1:pos:R:3:forces:R:3 generation=8 composition=W6 config_type=C15_aa source_path=V-Cr-Ti-W-Zr/Fixed_Engrads/vcrtiwzr_fin_engrads/job_gen_6-2024-12-23/W/W6_C15_idx_3050 date_processed=2025-02-12T16:53:56.724483 structure_index=3050 structure_id=21700 energy=-74.79432373046875 stress="-0.049094000610697214 0.02166957721718867 0.004500427672199872 0.02166957721718867 -0.060040427972271666 0.007412828177501264 0.004500427672199872 0.007412828177501264 -0.0511159374920271" calculation_info="_JSON {\"calculation_id\": 21699, \"calculator\": \"vasp\", \"calculation_source_path\": \"\", \"error\": null, \"status\": \"completed\", \"gpu_count\": null, \"parameters\": {}, \"date_started\": null, \"gpu_memory_mb\": null, \"model_version\": null, \"date_completed\": null, \"runtime_seconds\": null}" parent_id=21700 step=0 variance=0.20442251861095428 loss=0.20442251861095428 pbc="T T T"
W        0.93844000       0.92012000       0.92723000      -0.00008990       0.00001897       0.00003250
W        2.78336000       0.95316000       2.77907000      -0.00003705       0.00010043       0.00005707
W        2.81883000       2.74623000       0.94381000      -0.00005288       0.00005399       0.00011356
W        0.96687000       2.74144000       2.76774000       0.00018610      -0.00013537      -0.00014108
W        3.75375000       3.68048000       3.70893000      -0.01369517      -0.01199025      -0.05077336
W        5.63063000       5.52071000       5.56339000       0.01368888       0.01195225       0.05071142
6
Lattice="0.056873607 3.642634292 3.681010018 3.689849434 0.066088492 3.703681052 3.760780938 3.652229423 0.033162394" Properties=species:S:1:pos:R:3:forces:R:3 generation=8 composition=W6 config_type=C15_aa source_path=V-Cr-Ti-W-Zr/Fixed_Engrads/vcrtiwzr_fin_engrads/job_gen_6-2024-12-23/W/W6_C15_idx_3050 date_processed=2025-02-12T16:53:56.724483 structure_index=3050 structure_id=21700 energy=-74.79328155517578 stress="-0.049094000610697214 0.02166957721718867 0.004500427672199872 0.02166957721718867 -0.060040427972271666 0.007412828177501264 0.004500427672199872 0.007412828177501264 -0.0511159374920271" calculation_info="_JSON {\"calculation_id\": 21699, \"calculator\": \"vasp\", \"calculation_source_path\": \"\", \"error\": null, \"status\": \"completed\", \"gpu_count\": null, \"parameters\": {}, \"date_started\": null, \"gpu_memory_mb\": null, \"model_version\": null, \"date_completed\": null, \"runtime_seconds\": null}" parent_id=21700 step=1 variance=0.10589298605918884 loss=0.10589298605918884 pbc="T T T"
W        0.94844000       0.93012000       0.93723000       0.01838320       0.01875320      -0.04216642
W        2.79336000       0.96316000       2.78907000       0.01388447      -0.01365053      -0.04404422
W        2.82883000       2.75623000       0.95381000      -0.01882333      -0.01876610      -0.04304489
W        0.97687000       2.75144000       2.77774000      -0.01299221       0.01403730      -0.04442268
W        3.76375000       3.69048000       3.69893000      -0.01434770      -0.01197484       0.15442109
W        5.64063000       5.53071000       5.57339000       0.01389552       0.01160115       0.01925721
6
Lattice="0.056873607 3.642634292 3.681010018 3.689849434 0.066088492 3.703681052 3.760780938 3.652229423 0.033162394" Properties=species:S:1:pos:R:3:forces:R:3 generation=8 composition=W6 config_type=C15_aa source_path=V-Cr-Ti-W-Zr/Fixed_Engrads/vcrtiwzr_fin_engrads/job_gen_6-2024-12-23/W/W6_C15_idx_3050 date_processed=2025-02-12T16:53:56.724483 structure_index=3050 structure_id=21700 energy=-74.7902587890625 stress="-0.049094000610697214 0.02166957721718867 0.004500427672199872 0.02166957721718867 -0.060040427972271666 0.007412828177501264 0.004500427672199872 0.007412828177501264 -0.0511159374920271" calculation_info="_JSON {\"calculation_id\": 21699, \"calculator\": \"vasp\", \"calculation_source_path\": \"\", \"error\": null, \"status\": \"completed\", \"gpu_count\": null, \"parameters\": {}, \"date_started\": null, \"gpu_memory_mb\": null, \"model_version\": null, \"date_completed\": null, \"runtime_seconds\": null}" parent_id=21700 step=2 variance=0.06249252334237099 loss=0.06249252334237099 pbc="T T T"
W        0.95496438       0.93680697       0.94402570       0.03688145       0.01653333      -0.07052881
W        2.79984317       0.96965811       2.79626898       0.02037922      -0.02412538      -0.07920370
W        2.83543396       2.76189960       0.96049499      -0.02108623      -0.02930800      -0.07118740
W        0.98296204       2.75812559       2.78444797      -0.00659578       0.01674485      -0.07263865
W        3.77034540       3.69097846       3.69274296      -0.00939310       0.05369835       0.28432685
W        5.65042974       5.54060000       5.57913104      -0.02018550      -0.03354309       0.00923158
6
Lattice="0.056873607 3.642634292 3.681010018 3.689849434 0.066088492 3.703681052 3.760780938 3.652229423 0.033162394" Properties=species:S:1:pos:R:3:forces:R:3 generation=8 composition=W6 config_type=C15_aa source_path=V-Cr-Ti-W-Zr/Fixed_Engrads/vcrtiwzr_fin_engrads/job_gen_6-2024-12-23/W/W6_C15_idx_3050 date_processed=2025-02-12T16:53:56.724483 structure_index=3050 structure_id=21700 energy=-74.7867919921875 stress="-0.049094000610697214 0.02166957721718867 0.004500427672199872 0.02166957721718867 -0.060040427972271666 0.007412828177501264 0.004500427672199872 0.007412828177501264 -0.0511159374920271" calculation_info="_JSON {\"calculation_id\": 21699, \"calculator\": \"vasp\", \"calculation_source_path\": \"\", \"error\": null, \"status\": \"completed\", \"gpu_count\": null, \"parameters\": {}, \"date_started\": null, \"gpu_memory_mb\": null, \"model_version\": null, \"date_completed\": null, \"runtime_seconds\": null}" parent_id=21700 step=3 variance=0.12607109546661377 loss=0.12607109546661377 pbc="T T T"
W        0.96026632       0.94202826       0.94922208       0.04952345       0.01543224      -0.08540648
W        2.80512139       0.97481697       2.80205007       0.01407567      -0.03586119      -0.11388090
W        2.84051763       2.76695917       0.96570065      -0.02839671      -0.04962329      -0.09565678
W        0.98794834       2.76331622       2.78962244      -0.01646530       0.01107546      -0.09279121
W        3.77554376       3.69581934       3.68759900      -0.01236520       0.05105918       0.38927007
W        5.65421463       5.54170499       5.58390376      -0.00637195       0.00791769      -0.00153472
6
Lattice="0.056873607 3.642634292 3.681010018 3.689849434 0.066088492 3.703681052 3.760780938 3.652229423 0.033162394" Properties=species:S:1:pos:R:3:forces:R:3 generation=8 composition=W6 config_type=C15_aa source_path=V-Cr-Ti-W-Zr/Fixed_Engrads/vcrtiwzr_fin_engrads/job_gen_6-2024-12-23/W/W6_C15_idx_3050 date_processed=2025-02-12T16:53:56.724483 structure_index=3050 structure_id=21700 energy=-74.78185729980468 stress="-0.049094000610697214 0.02166957721718867 0.004500427672199872 0.02166957721718867 -0.060040427972271666 0.007412828177501264 0.004500427672199872 0.007412828177501264 -0.0511159374920271" calculation_info="_JSON {\"calculation_id\": 21699, \"calculator\": \"vasp\", \"calculation_source_path\": \"\", \"error\": null, \"status\": \"completed\", \"gpu_count\": null, \"parameters\": {}, \"date_started\": null, \"gpu_memory_mb\": null, \"model_version\": null, \"date_completed\": null, \"runtime_seconds\": null}" parent_id=21700 step=4 variance=0.02333061955869198 loss=0.02333061955869198 pbc="T T T"
W        0.96611170       0.94621465       0.95340875      -0.05270945      -0.01984257      -0.13483952
W        2.80967623       0.97868772       2.80074538       0.02757249      -0.12023491       0.01866366
W        2.84488461       2.76656424       0.96985009      -0.01175269       0.07269312      -0.19421808
W        0.99199614       2.76755022       2.79386112      -0.02604449      -0.01023494      -0.10845816
W        3.78001667       3.69266268       3.68192150      -0.01228310       0.11108094       0.47452492
W        5.65158638       5.54718020       5.59012287       0.07521740      -0.03346162      -0.05567290
6
Lattice="0.056873607 3.642634292 3.681010018 3.689849434 0.066088492 3.703681052 3.760780938 3.652229423 0.033162394" Properties=species:S:1:pos:R:3:forces:R:3 generation=8 composition=W6 config_type=C15_aa source_path=V-Cr-Ti-W-Zr/Fixed_Engrads/vcrtiwzr_fin_engrads/job_gen_6-2024-12-23/W/W6_C15_idx_3050 date_processed=2025-02-12T16:53:56.724483 structure_index=3050 structure_id=21700 energy=-74.77538299560547 stress="-0.049094000610697214 0.02166957721718867 0.004500427672199872 0.02166957721718867 -0.060040427972271666 0.007412828177501264 0.004500427672199872 0.007412828177501264 -0.0511159374920271" calculation_info="_JSON {\"calculation_id\": 21699, \"calculator\": \"vasp\", \"calculation_source_path\": \"\", \"error\": null, \"status\": \"completed\", \"gpu_count\": null, \"parameters\": {}, \"date_started\": null, \"gpu_memory_mb\": null, \"model_version\": null, \"date_completed\": null, \"runtime_seconds\": null}" parent_id=21700 step=5 variance=0.011398177593946457 loss=0.011398177593946457 pbc="T T T"
W        0.97093700       0.94976367       0.95698036      -0.12939051      -0.04812999      -0.17349100
W        2.81352924       0.98194634       2.80029034       0.03507252      -0.18504843       0.11495061
W        2.84854923       2.76648518       0.97337537       0.00048908       0.16454181      -0.27162930
W        0.99536822       2.77112912       2.79744271      -0.03295978      -0.02780298      -0.12228166
W        3.78377676       3.69021020       3.67724995      -0.01204031       0.16052000       0.54601932
W        5.64976575       5.55158901       5.59487693       0.13882902      -0.06408028      -0.09356783
6
Lattice="0.056873607 3.642634292 3.681010018 3.689849434 0.066088492 3.703681052 3.760780938 3.652229423 0.033162394" Properties=species:S:1:pos:R:3:forces:R:3 generation=8 composition=W6 config_type=C15_aa source_path=V-Cr-Ti-W-Zr/Fixed_Engrads/vcrtiwzr_fin_engrads/job_gen_6-2024-12-23/W/W6_C15_idx_3050 date_processed=2025-02-12T16:53:56.724483 structure_index=3050 structure_id=21700 energy=-74.7682098388672 stress="-0.049094000610697214 0.02166957721718867 0.004500427672199872 0.02166957721718867 -0.060040427972271666 0.007412828177501264 0.004500427672199872 0.007412828177501264 -0.0511159374920271" calculation_info="_JSON {\"calculation_id\": 21699, \"calculator\": \"vasp\", \"calculation_source_path\": \"\", \"error\": null, \"status\": \"completed\", \"gpu_count\": null, \"parameters\": {}, \"date_started\": null, \"gpu_memory_mb\": null, \"model_version\": null, \"date_completed\": null, \"runtime_seconds\": null}" parent_id=21700 step=6 variance=0.008489790372550488 loss=0.008489790372550488 pbc="T T T"
W        0.97507799       0.95283187       0.96007834      -0.19357118      -0.07268424      -0.20651278
W        2.81684801       0.98475319       2.80004628       0.04087362      -0.24010265       0.19460714
W        2.85168944       2.76646938       0.97642342       0.01111465       0.24126370      -0.33776164
W        0.99828625       2.77421189       2.80052410      -0.03924336      -0.04253815      -0.13372278
W        3.78701767       3.68810882       3.67324068      -0.01154637       0.20321994       0.60750860
W        5.64829123       5.55532894       5.59886232       0.19237258      -0.08915876      -0.12411861
6
Lattice="0.056873607 3.642634292 3.681010018 3.689849434 0.066088492 3.703681052 3.760780938 3.652229423 0.033162394" Properties=species:S:1:pos:R:3:forces:R:3 generation=8 composition=W6 config_type=C15_aa source_path=V-Cr-Ti-W-Zr/Fixed_Engrads/vcrtiwzr_fin_engrads/job_gen_6-2024-12-23/W/W6_C15_idx_3050 date_processed=2025-02-12T16:53:56.724483 structure_index=3050 structure_id=21700 energy=-74.76075286865235 stress="-0.049094000610697214 0.02166957721718867 0.004500427672199872 0.02166957721718867 -0.060040427972271666 0.007412828177501264 0.004500427672199872 0.007412828177501264 -0.0511159374920271" calculation_info="_JSON {\"calculation_id\": 21699, \"calculator\": \"vasp\", \"calculation_source_path\": \"\", \"error\": null, \"status\": \"completed\", \"gpu_count\": null, \"parameters\": {}, \"date_started\": null, \"gpu_memory_mb\": null, \"model_version\": null, \"date_completed\": null, \"runtime_seconds\": null}" parent_id=21700 step=7 variance=0.007384240627288818 loss=0.007384240627288818 pbc="T T T"
W        0.97869546       0.95552045       0.96280148      -0.24935763      -0.09464237      -0.23571673
W        2.81973900       0.98720718       2.79987602       0.04618230      -0.28857568       0.26345882
W        2.85441511       2.76646389       0.97909364       0.02093547       0.30777812      -0.39600667
W        1.00086138       2.77690172       2.80320890      -0.04543617      -0.05487172      -0.14301465
W        3.78985095       3.68626289       3.66974430      -0.01083275       0.24068832       0.66106248
W        5.64705230       5.55856499       5.60229643       0.23850861      -0.11037662      -0.14978294
6
Lattice="0.056873607 3.642634292 3.681010018 3.689849434 0.066088492 3.703681052 3.760780938 3.652229423 0.033162394" Properties=species:S:1:pos:R:3:forces:R:3 generation=8 composition=W6 config_type=C15_aa source_path=V-Cr-Ti-W-Zr/Fixed_Engrads/vcrtiwzr_fin_engrads/job_gen_6-2024-12-23/W/W6_C15_idx_3050 date_processed=2025-02-12T16:53:56.724483 structure_index=3050 structure_id=21700 energy=-74.75324401855468 stress="-0.049094000610697214 0.02166957721718867 0.004500427672199872 0.02166957721718867 -0.060040427972271666 0.007412828177501264 0.004500427672199872 0.007412828177501264 -0.0511159374920271" calculation_info="_JSON {\"calculation_id\": 21699, \"calculator\": \"vasp\", \"calculation_source_path\": \"\", \"error\": null, \"status\": \"completed\", \"gpu_count\": null, \"parameters\": {}, \"date_started\": null, \"gpu_memory_mb\": null, \"model_version\": null, \"date_completed\": null, \"runtime_seconds\": null}" parent_id=21700 step=8 variance=0.0068912445567548275 loss=0.0068912445567548275 pbc="T T T"
W        0.98189154       0.95789945       0.96521892      -0.29886353      -0.11461178      -0.26206639
W        2.82227775       0.98937507       2.79973042       0.05145508      -0.33209568       0.32439631
W        2.85680242       2.76645312       0.98145525       0.03031713       0.36664078      -0.44820327
W        1.00316319       2.77927037       2.80556944      -0.05173485      -0.06514198      -0.15045612
W        3.79235244       3.68462277       3.66666493      -0.00995143       0.27385908       0.70812285
W        5.64599374       5.56139893       5.60529854       0.27877793      -0.12865034      -0.17179327
6
Lattice="0.056873607 3.642634292 3.681010018 3.689849434 0.066088492 3.703681052 3.760780938 3.652229423 0.033162394" Properties=species:S:1:pos:R:3:forces:R:3 generation=8 composition=W6 config_type=C15_aa source_path=V-Cr-Ti-W-Zr/Fixed_Engrads/vcrtiwzr_fin_engrads/job_gen_6-2024-12-23/W/W6_C15_idx_3050 date_processed=2025-02-12T16:53:56.724483 structure_index=3050 structure_id=21700 energy=-74.74583282470704 stress="-0.049094000610697214 0.02166957721718867 0.004500427672199872 0.02166957721718867 -0.060040427972271666 0.007412828177501264 0.004500427672199872 0.007412828177501264 -0.0511159374920271" calculation_info="_JSON {\"calculation_id\": 21699, \"calculator\": \"vasp\", \"calculation_source_path\": \"\", \"error\": null, \"status\": \"completed\", \"gpu_count\": null, \"parameters\": {}, \"date_started\": null, \"gpu_memory_mb\": null, \"model_version\": null, \"date_completed\": null, \"runtime_seconds\": null}" parent_id=21700 step=9 variance=0.0066732377745211124 loss=0.0066732377745211124 pbc="T T T"
W        0.98473843       0.96002002       0.96738137      -0.34337002      -0.13296011      -0.28613845
W        2.82452078       0.99130501       2.79959137       0.05688109      -0.37163773       0.37908345
W        2.85890708       2.76643173       0.98355884       0.03941972       0.41937679      -0.49548298
W        1.00524013       2.78137040       2.80765874      -0.05820602      -0.07362123      -0.15630087
W        3.79457722       3.68315576       3.66393293      -0.00895173       0.30341178       0.74975878
W        5.64508113       5.56390141       5.60794844       0.31422693      -0.14456943      -0.19092003
6
Lattice="0.056873607 3.642634292 3.681010018 3.689849434 0.066088492 3.703681052 3.760780938 3.652229423 0.033162394" Properties=species:S:1:pos:R:3:forces:R:3 generation=8 composition=W6 config_type=C15_aa source_path=V-Cr-Ti-W-Zr/Fixed_Engrads/vcrtiwzr_fin_engrads/job_gen_6-2024-12-23/W/W6_C15_idx_3050 date_processed=2025-02-12T16:53:56.724483 structure_index=3050 structure_id=21700 energy=-74.73860778808594 stress="-0.049094000610697214 0.02166957721718867 0.004500427672199872 0.02166957721718867 -0.060040427972271666 0.007412828177501264 0.004500427672199872 0.007412828177501264 -0.0511159374920271" calculation_info="_JSON {\"calculation_id\": 21699, \"calculator\": \"vasp\", \"calculation_source_path\": \"\", \"error\": null, \"status\": \"completed\", \"gpu_count\": null, \"parameters\": {}, \"date_started\": null, \"gpu_memory_mb\": null, \"model_version\": null, \"date_completed\": null, \"runtime_seconds\": null}" parent_id=21700 step=10 variance=0.006602667272090912 loss=0.006602667272090912 pbc="T T T"
W        0.98728938       0.96192111       0.96932748      -0.38377661      -0.14997534      -0.30833730
W        2.82651155       0.99303314       2.79944888       0.06255349      -0.40788364       0.42868710
W        2.86077127       2.76639652       0.98544301       0.04834507       0.46711248      -0.53865087
W        1.00712644       2.78324188       2.80951721      -0.06485878      -0.08054027      -0.16078094
W        3.79656728       3.68183935       3.66149681      -0.00787848       0.32984042       0.78678691
W        5.64429098       5.56612424       5.61030328       0.34561533      -0.15855379      -0.20770499
6
Lattice="0.056873607 3.642634292 3.681010018 3.689849434 0.066088492 3.703681052 3.760780938 3.652229423 0.033162394" Properties=species:S:1:pos:R:3:forces:R:3 generation=8 composition=W6 config_type=C15_aa source_path=V-Cr-Ti-W-Zr/Fixed_Engrads/vcrtiwzr_fin_engrads/job_gen_6-2024-12-23/W/W6_C15_idx_3050 date_processed=2025-02-12T16:53:56.724483 structure_index=3050 structure_id=21700 energy=-74.73163452148438 stress="-0.049094000610697214 0.02166957721718867 0.004500427672199872 0.02166957721718867 -0.060040427972271666 0.007412828177501264 0.004500427672199872 0.007412828177501264 -0.0511159374920271" calculation_info="_JSON {\"calculation_id\": 21699, \"calculator\": \"vasp\", \"calculation_source_path\": \"\", \"error\": null, \"status\": \"completed\", \"gpu_count\": null, \"parameters\": {}, \"date_started\": null, \"gpu_memory_mb\": null, \"model_version\": null, \"date_completed\": null, \"runtime_seconds\": null}" parent_id=21700 step=11 variance=0.006620734930038452 loss=0.006620734930038452 pbc="T T T"
W        0.98958541       0.96363337       0.97108750      -0.42073783      -0.16586463      -0.32898784
W        2.82828439       0.99458749       2.79929639       0.06849305      -0.44133982       0.47408080
W        2.86242817       2.76634617       0.98713796       0.05715780       0.51065952      -0.57832724
W        1.00884805       2.78491625       2.81117654      -0.07166114      -0.08610626      -0.16407485
W        3.79835545       3.68065207       3.65931497      -0.00677186       0.35356554       0.81985158
W        5.64360524       5.56810727       5.61240633       0.37352008      -0.17091441      -0.22254245
6
Lattice="0.056873607 3.642634292 3.681010018 3.689849434 0.066088492 3.703681052 3.760780938 3.652229423 0.033162394" Properties=species:S:1:pos:R:3:forces:R:3 generation=8 composition=W6 config_type=C15_aa source_path=V-Cr-Ti-W-Zr/Fixed_Engrads/vcrtiwzr_fin_engrads/job_gen_6-2024-12-23/W/W6_C15_idx_3050 date_processed=2025-02-12T16:53:56.724483 structure_index=3050 structure_id=21700 energy=-74.72494049072266 stress="-0.049094000610697214 0.02166957721718867 0.004500427672199872 0.02166957721718867 -0.060040427972271666 0.007412828177501264 0.004500427672199872 0.007412828177501264 -0.0511159374920271" calculation_info="_JSON {\"calculation_id\": 21699, \"calculator\": \"vasp\", \"calculation_source_path\": \"\", \"error\": null, \"status\": \"completed\", \"gpu_count\": null, \"parameters\": {}, \"date_started\": null, \"gpu_memory_mb\": null, \"model_version\": null, \"date_completed\": null, \"runtime_seconds\": null}" parent_id=21700 step=12 variance=0.006698989775031805 loss=0.006698989775031805 pbc="T T T"
W        0.99166056       0.96518153       0.97268613      -0.45481473      -0.18080139      -0.34833670
W        2.82986724       0.99599071       2.79912964       0.07474123      -0.47239429       0.51595199
W        2.86390465       2.76628030       0.98866809       0.06590891       0.55068493      -0.61498439
W        1.01042544       2.78641892       2.81266236      -0.07857913      -0.09046382      -0.16631991
W        3.79996844       3.67958185       3.65735673      -0.00565791       0.37488893       0.84943879
W        5.64301116       5.56988321       5.61429250       0.39840159      -0.18191439      -0.23574963
6
Lattice="0.056873607 3.642634292 3.681010018 3.689849434 0.066088492 3.703681052 3.760780938 3.652229423 0.033162394" Properties=species:S:1:pos:R:3:forces:R:3 generation=8 composition=W6 config_type=C15_aa source_path=V-Cr-Ti-W-Zr/Fixed_Engrads/vcrtiwzr_fin_engrads/job_gen_6-2024-12-23/W/W6_C15_idx_3050 date_processed=2025-02-12T16:53:56.724483 structure_index=3050 structure_id=21700 energy=-74.71855316162109 stress="-0.049094000610697214 0.02166957721718867 0.004500427672199872 0.02166957721718867 -0.060040427972271666 0.007412828177501264 0.004500427672199872 0.007412828177501264 -0.0511159374920271" calculation_info="_JSON {\"calculation_id\": 21699, \"calculator\": \"vasp\", \"calculation_source_path\": \"\", \"error\": null, \"status\": \"completed\", \"gpu_count\": null, \"parameters\": {}, \"date_started\": null, \"gpu_memory_mb\": null, \"model_version\": null, \"date_completed\": null, \"runtime_seconds\": null}" parent_id=21700 step=13 variance=0.006819275673478842 loss=0.006819275673478842 pbc="T T T"
W        0.99354226       0.96658588       0.97414365      -0.48640895      -0.19493107      -0.36659497
W        2.83128331       0.99726098       2.79894520       0.08127052      -0.50133073       0.55484790
W        2.86522265       2.76619892       0.99005340       0.07462039       0.58770019      -0.64900297
W        1.01187394       2.78777072       2.81399564      -0.08554415      -0.09377931      -0.16765091
W        3.80142802       3.67861552       3.65559565      -0.00455434       0.39407629       0.87597525
W        5.64249831       5.57147795       5.61598974       0.42061657      -0.19173525      -0.24757442
6
Lattice="0.056873607 3.642634292 3.681010018 3.689849434 0.066088492 3.703681052 3.760780938 3.652229423 0.033162394" Properties=species:S:1:pos:R:3:forces:R:3 generation=8 composition=W6 config_type=C15_aa source_path=V-Cr-Ti-W-Zr/Fixed_Engrads/vcrtiwzr_fin_engrads/job_gen_6-2024-12-23/W/W6_C15_idx_3050 date_processed=2025-02-12T16:53:56.724483 structure_index=3050 structure_id=21700 energy=-74.7124755859375 stress="-0.049094000610697214 0.02166957721718867 0.004500427672199872 0.02166957721718867 -0.060040427972271666 0.007412828177501264 0.004500427672199872 0.007412828177501264 -0.0511159374920271" calculation_info="_JSON {\"calculation_id\": 21699, \"calculator\": \"vasp\", \"calculation_source_path\": \"\", \"error\": null, \"status\": \"completed\", \"gpu_count\": null, \"parameters\": {}, \"date_started\": null, \"gpu_memory_mb\": null, \"model_version\": null, \"date_completed\": null, \"runtime_seconds\": null}" parent_id=21700 step=14 variance=0.006971747148782015 loss=0.006971747148782015 pbc="T T T"
W        0.99525331       0.96786344       0.97547700      -0.51588255      -0.20836589      -0.38391501
W        2.83255220       0.99841337       2.79874199       0.08808016      -0.52838355       0.59119546
W        2.86640080       2.76610137       0.99131063       0.08331134       0.62213826      -0.68068755
W        1.01320632       2.78898908       2.81519393      -0.09250317      -0.09616566      -0.16817486
W        3.80275270       3.67774527       3.65400936      -0.00348771       0.41132736       0.89980078
W        5.64205821       5.57291312       5.61752153       0.44048184      -0.20055071      -0.25821862
6
Lattice="0.056873607 3.642634292 3.681010018 3.689849434 0.066088492 3.703681052 3.760780938 3.652229423 0.033162394" Properties=species:S:1:pos:R:3:forces:R:3 generation=8 composition=W6 config_type=C15_aa source_path=V-Cr-Ti-W-Zr/Fixed_Engrads/vcrtiwzr_fin_engrads/job_gen_6-2024-12-23/W/W6_C15_idx_3050 date_processed=2025-02-12T16:53:56.724483 structure_index=3050 structure_id=21700 energy=-74.70671081542969 stress="-0.049094000610697214 0.02166957721718867 0.004500427672199872 0.02166957721718867 -0.060040427972271666 0.007412828177501264 0.004500427672199872 0.007412828177501264 -0.0511159374920271" calculation_info="_JSON {\"calculation_id\": 21699, \"calculator\": \"vasp\", \"calculation_source_path\": \"\", \"error\": null, \"status\": \"completed\", \"gpu_count\": null, \"parameters\": {}, \"date_started\": null, \"gpu_memory_mb\": null, \"model_version\": null, \"date_completed\": null, \"runtime_seconds\": null}" parent_id=21700 step=15 variance=0.00714915432035923 loss=0.00714915432035923 pbc="T T T"
W        0.99681270       0.96902861       0.97670059      -0.54349005      -0.22119029      -0.40043634
W        2.83369061       0.99946072       2.79851904       0.09513285      -0.55374110       0.62534487
W        2.86745454       2.76598808       0.99245381       0.09196980       0.65434271      -0.71028411
W        1.01443206       2.79008878       2.81627207      -0.09937394      -0.09774812      -0.16800065
W        3.80395798       3.67696255       3.65257917      -0.00247347       0.42682424       0.92121601
W        5.64168439       5.57420705       5.61890701       0.45823497      -0.20848748      -0.26783967
6
Lattice="0.056873607 3.642634292 3.681010018 3.689849434 0.066088492 3.703681052 3.760780938 3.652229423 0.033162394" Properties=species:S:1:pos:R:3:forces:R:3 generation=8 composition=W6 config_type=C15_aa source_path=V-Cr-Ti-W-Zr/Fixed_Engrads/vcrtiwzr_fin_engrads/job_gen_6-2024-12-23/W/W6_C15_idx_3050 date_processed=2025-02-12T16:53:56.724483 structure_index=3050 structure_id=21700 energy=-74.70124664306641 stress="-0.049094000610697214 0.02166957721718867 0.004500427672199872 0.02166957721718867 -0.060040427972271666 0.007412828177501264 0.004500427672199872 0.007412828177501264 -0.0511159374920271" calculation_info="_JSON {\"calculation_id\": 21699, \"calculator\": \"vasp\", \"calculation_source_path\": \"\", \"error\": null, \"status\": \"completed\", \"gpu_count\": null, \"parameters\": {}, \"date_started\": null, \"gpu_memory_mb\": null, \"model_version\": null, \"date_completed\": null, \"runtime_seconds\": null}" parent_id=21700 step=16 variance=0.007348005194216967 loss=0.007348005194216967 pbc="T T T"
W        0.99823756       0.97009380       0.97782684      -0.56952929      -0.23351164      -0.41631222
W        2.83471290       1.00041364       2.79827310       0.10242569      -0.57757282       0.65767378
W        2.86839739       2.76585803       0.99349500       0.10061853       0.68466604      -0.73802006
W        1.01555923       2.79108248       2.81724283      -0.10608125      -0.09861349      -0.16720390
W        3.80505754       3.67626231       3.65128958      -0.00153174       0.44069225       0.94045055
W        5.64137066       5.57537529       5.62016299       0.47409803      -0.21566050      -0.27658823
6