2
Lattice="2.401146684 -0.163180303 -0.506383429 -0.394999135 2.259837114 0.271456648 -0.292883063 -0.037740246 2.484741399" Properties=species:S:1:pos:R:3:forces:R:3 generation=7 config_type=bcc_distorted source_path=/home/myless/Calc_VASP/MRS/job_gen_7-2025-04-10/Cr/Cr2_bcc_distorted_idx_2538 formula_string=Cr2 composition_str=Cr2 structure_index=2538 date_added_to_db=2025-04-14T00:13:57.282729 structure_id=22437 energy=-6.6721106 stress="-3.01173145167392 -0.47043236071167616 -1.0558388370161893 -0.47043236071167616 -3.639438900992357 -0.5237921332174765 -1.0558388370161893 -0.5237921332174765 -3.3564272753617255" calculation_info="_JSON {\"calculation_id\": 22432, \"calculator\": \"vasp\", \"calculation_source_path\": \"/home/myless/Calc_VASP/MRS/job_gen_7-2025-04-10/Cr/Cr2_bcc_distorted_idx_2538\", \"nbands\": 64, \"parser\": \"ase_outcar\", \"potcar\": \"PAW_PBE Cr_pv 02Aug2007\", \"kpoints\": [20, 21, 19], \"date_run\": \"2025.03.18  23:54:20\", \"vasp_version\": \"vasp.6.4.2 20Jul23\", \"resources_used\": {\"nodes\": 1, \"mpi_ranks\": 64, \"gpus_detected\": false, \"threads_per_rank\": 2}, \"calculation_type\": \"static\"}" pbc="T T T"
Cr       0.00000000       0.00000000       0.00000000       0.00000000       0.00000000       0.00000000
Cr       0.85663000       1.02946000       1.12491000       0.00000000       0.00000000       0.00000000
2
Lattice="2.401146684 -0.163180303 -0.506383429 -0.394999135 2.259837114 0.271456648 -0.292883063 -0.037740246 2.484741399" Properties=species:S:1:pos:R:3:forces:R:3 generation=8 config_type=bcc_distorted_aa source_path=/home/myless/Calc_VASP/MRS/job_gen_7-2025-04-10/Cr/Cr2_bcc_distorted_idx_2538 formula_string=Cr2 composition_str=Cr2 structure_index=2538 date_added_to_db=2025-04-14T00:13:57.282729 structure_id=22437 energy=-6.456760883331299 stress="-3.01173145167392 -0.47043236071167616 -1.0558388370161893 -0.47043236071167616 -3.639438900992357 -0.5237921332174765 -1.0558388370161893 -0.5237921332174765 -3.3564272753617255" calculation_info="_JSON {\"calculation_id\": 22432, \"calculator\": \"vasp\", \"calculation_source_path\": \"/home/myless/Calc_VASP/MRS/job_gen_7-2025-04-10/Cr/Cr2_bcc_distorted_idx_2538\", \"nbands\": 64, \"parser\": \"ase_outcar\", \"potcar\": \"PAW_PBE Cr_pv 02Aug2007\", \"kpoints\": [20, 21, 19], \"date_run\": \"2025.03.18  23:54:20\", \"vasp_version\": \"vasp.6.4.2 20Jul23\", \"resources_used\": {\"nodes\": 1, \"mpi_ranks\": 64, \"gpus_detected\": false, \"threads_per_rank\": 2}, \"calculation_type\": \"static\"}" parent_id=22437 step=0 variance=0.21447637677192688 loss=0.21447637677192688 pbc="T T T"
Cr       0.00000000       0.00000000       0.00000000      -0.00001459       0.00003411       0.00003436
Cr       0.85663000       1.02946000       1.12491000       0.00001416      -0.00003386      -0.00003388
2
Lattice="2.401146684 -0.163180303 -0.506383429 -0.394999135 2.259837114 0.271456648 -0.292883063 -0.037740246 2.484741399" Properties=species:S:1:pos:R:3:forces:R:3 generation=8 config_type=bcc_distorted_aa source_path=/home/myless/Calc_VASP/MRS/job_gen_7-2025-04-10/Cr/Cr2_bcc_distorted_idx_2538 formula_string=Cr2 composition_str=Cr2 structure_index=2538 date_added_to_db=2025-04-14T00:13:57.282729 structure_id=22437 energy=-6.456761360168457 stress="-3.01173145167392 -0.47043236071167616 -1.0558388370161893 -0.47043236071167616 -3.639438900992357 -0.5237921332174765 -1.0558388370161893 -0.5237921332174765 -3.3564272753617255" calculation_info="_JSON {\"calculation_id\": 22432, \"calculator\": \"vasp\", \"calculation_source_path\": \"/home/myless/Calc_VASP/MRS/job_gen_7-2025-04-10/Cr/Cr2_bcc_distorted_idx_2538\", \"nbands\": 64, \"parser\": \"ase_outcar\", \"potcar\": \"PAW_PBE Cr_pv 02Aug2007\", \"kpoints\": [20, 21, 19], \"date_run\": \"2025.03.18  23:54:20\", \"vasp_version\": \"vasp.6.4.2 20Jul23\", \"resources_used\": {\"nodes\": 1, \"mpi_ranks\": 64, \"gpus_detected\": false, \"threads_per_rank\": 2}, \"calculation_type\": \"static\"}" parent_id=22437 step=1 variance=0.22147829830646515 loss=0.22147829830646515 pbc="T T T"
Cr      -0.01000000      -0.01000000      -0.01000000      -0.00002349       0.00002662       0.00003585
Cr       0.84663000       1.01946000       1.11491000       0.00002349      -0.00002726      -0.00003501
2
Lattice="2.401146684 -0.163180303 -0.506383429 -0.394999135 2.259837114 0.271456648 -0.292883063 -0.037740246 2.484741399" Properties=species:S:1:pos:R:3:forces:R:3 generation=8 config_type=bcc_distorted_aa source_path=/home/myless/Calc_VASP/MRS/job_gen_7-2025-04-10/Cr/Cr2_bcc_distorted_idx_2538 formula_string=Cr2 composition_str=Cr2 structure_index=2538 date_added_to_db=2025-04-14T00:13:57.282729 structure_id=22437 energy=-6.456760311126709 stress="-3.01173145167392 -0.47043236071167616 -1.0558388370161893 -0.47043236071167616 -3.639438900992357 -0.5237921332174765 -1.0558388370161893 -0.5237921332174765 -3.3564272753617255" calculation_info="_JSON {\"calculation_id\": 22432, \"calculator\": \"vasp\", \"calculation_source_path\": \"/home/myless/Calc_VASP/MRS/job_gen_7-2025-04-10/Cr/Cr2_bcc_distorted_idx_2538\", \"nbands\": 64, \"parser\": \"ase_outcar\", \"potcar\": \"PAW_PBE Cr_pv 02Aug2007\", \"kpoints\": [20, 21, 19], \"date_run\": \"2025.03.18  23:54:20\", \"vasp_version\": \"vasp.6.4.2 20Jul23\", \"resources_used\": {\"nodes\": 1, \"mpi_ranks\": 64, \"gpus_detected\": false, \"threads_per_rank\": 2}, \"calculation_type\": \"static\"}" parent_id=22437 step=2 variance=0.22542688250541687 loss=0.22542688250541687 pbc="T T T"
Cr      -0.01991700      -0.02001348      -0.02000397      -0.00136437       0.00007506      -0.00052938
Cr       0.83663386       1.00944698       1.10491238       0.00136455      -0.00007472       0.00052932
2
Lattice="2.401146684 -0.163180303 -0.506383429 -0.394999135 2.259837114 0.271456648 -0.292883063 -0.037740246 2.484741399" Properties=species:S:1:pos:R:3:forces:R:3 generation=8 config_type=bcc_distorted_aa source_path=/home/myless/Calc_VASP/MRS/job_gen_7-2025-04-10/Cr/Cr2_bcc_distorted_idx_2538 formula_string=Cr2 composition_str=Cr2 structure_index=2538 date_added_to_db=2025-04-14T00:13:57.282729 structure_id=22437 energy=-6.4545797348022464 stress="-3.01173145167392 -0.47043236071167616 -1.0558388370161893 -0.47043236071167616 -3.639438900992357 -0.5237921332174765 -1.0558388370161893 -0.5237921332174765 -3.3564272753617255" calculation_info="_JSON {\"calculation_id\": 22432, \"calculator\": \"vasp\", \"calculation_source_path\": \"/home/myless/Calc_VASP/MRS/job_gen_7-2025-04-10/Cr/Cr2_bcc_distorted_idx_2538\", \"nbands\": 64, \"parser\": \"ase_outcar\", \"potcar\": \"PAW_PBE Cr_pv 02Aug2007\", \"kpoints\": [20, 21, 19], \"date_run\": \"2025.03.18  23:54:20\", \"vasp_version\": \"vasp.6.4.2 20Jul23\", \"resources_used\": {\"nodes\": 1, \"mpi_ranks\": 64, \"gpus_detected\": false, \"threads_per_rank\": 2}, \"calculation_type\": \"static\"}" parent_id=22437 step=3 variance=0.17198583483695984 loss=0.17198583483695984 pbc="T T T"
Cr      -0.02988819      -0.02886108      -0.02920543       0.14041004      -0.04644803       0.29261345
Cr       0.82762245       0.99980199       1.11006670      -0.14041004       0.04644836      -0.29261285
2
Lattice="2.401146684 -0.163180303 -0.506383429 -0.394999135 2.259837114 0.271456648 -0.292883063 -0.037740246 2.484741399" Properties=species:S:1:pos:R:3:forces:R:3 generation=8 config_type=bcc_distorted_aa source_path=/home/myless/Calc_VASP/MRS/job_gen_7-2025-04-10/Cr/Cr2_bcc_distorted_idx_2538 formula_string=Cr2 composition_str=Cr2 structure_index=2538 date_added_to_db=2025-04-14T00:13:57.282729 structure_id=22437 energy=-6.4495923042297365 stress="-3.01173145167392 -0.47043236071167616 -1.0558388370161893 -0.47043236071167616 -3.639438900992357 -0.5237921332174765 -1.0558388370161893 -0.5237921332174765 -3.3564272753617255" calculation_info="_JSON {\"calculation_id\": 22432, \"calculator\": \"vasp\", \"calculation_source_path\": \"/home/myless/Calc_VASP/MRS/job_gen_7-2025-04-10/Cr/Cr2_bcc_distorted_idx_2538\", \"nbands\": 64, \"parser\": \"ase_outcar\", \"potcar\": \"PAW_PBE Cr_pv 02Aug2007\", \"kpoints\": [20, 21, 19], \"date_run\": \"2025.03.18  23:54:20\", \"vasp_version\": \"vasp.6.4.2 20Jul23\", \"resources_used\": {\"nodes\": 1, \"mpi_ranks\": 64, \"gpus_detected\": false, \"threads_per_rank\": 2}, \"calculation_type\": \"static\"}" parent_id=22437 step=4 variance=0.16801482439041138 loss=0.16801482439041138 pbc="T T T"
Cr      -0.03784262      -0.03610335      -0.03674441       0.25144738      -0.08485015       0.53134120
Cr       0.82017393       0.99189819       1.11428972      -0.25144783       0.08484992      -0.53134090
2
Lattice="2.401146684 -0.163180303 -0.506383429 -0.394999135 2.259837114 0.271456648 -0.292883063 -0.037740246 2.484741399" Properties=species:S:1:pos:R:3:forces:R:3 generation=8 config_type=bcc_distorted_aa source_path=/home/myless/Calc_VASP/MRS/job_gen_7-2025-04-10/Cr/Cr2_bcc_distorted_idx_2538 formula_string=Cr2 composition_str=Cr2 structure_index=2538 date_added_to_db=2025-04-14T00:13:57.282729 structure_id=22437 energy=-6.443163108825684 stress="-3.01173145167392 -0.47043236071167616 -1.0558388370161893 -0.47043236071167616 -3.639438900992357 -0.5237921332174765 -1.0558388370161893 -0.5237921332174765 -3.3564272753617255" calculation_info="_JSON {\"calculation_id\": 22432, \"calculator\": \"vasp\", \"calculation_source_path\": \"/home/myless/Calc_VASP/MRS/job_gen_7-2025-04-10/Cr/Cr2_bcc_distorted_idx_2538\", \"nbands\": 64, \"parser\": \"ase_outcar\", \"potcar\": \"PAW_PBE Cr_pv 02Aug2007\", \"kpoints\": [20, 21, 19], \"date_run\": \"2025.03.18  23:54:20\", \"vasp_version\": \"vasp.6.4.2 20Jul23\", \"resources_used\": {\"nodes\": 1, \"mpi_ranks\": 64, \"gpus_detected\": false, \"threads_per_rank\": 2}, \"calculation_type\": \"static\"}" parent_id=22437 step=5 variance=0.16236846148967743 loss=0.16236846148967743 pbc="T T T"
Cr      -0.04446202      -0.04222440      -0.04311618       0.34262973      -0.11765522       0.73321807
Cr       0.81384376       0.98521660       1.11785837      -0.34263006       0.11765512      -0.73321736
2
Lattice="2.401146684 -0.163180303 -0.506383429 -0.394999135 2.259837114 0.271456648 -0.292883063 -0.037740246 2.484741399" Properties=species:S:1:pos:R:3:forces:R:3 generation=8 config_type=bcc_distorted_aa source_path=/home/myless/Calc_VASP/MRS/job_gen_7-2025-04-10/Cr/Cr2_bcc_distorted_idx_2538 formula_string=Cr2 composition_str=Cr2 structure_index=2538 date_added_to_db=2025-04-14T00:13:57.282729 structure_id=22437 energy=-6.436019706726074 stress="-3.01173145167392 -0.47043236071167616 -1.0558388370161893 -0.47043236071167616 -3.639438900992357 -0.5237921332174765 -1.0558388370161893 -0.5237921332174765 -3.3564272753617255" calculation_info="_JSON {\"calculation_id\": 22432, \"calculator\": \"vasp\", \"calculation_source_path\": \"/home/myless/Calc_VASP/MRS/job_gen_7-2025-04-10/Cr/Cr2_bcc_distorted_idx_2538\", \"nbands\": 64, \"parser\": \"ase_outcar\", \"potcar\": \"PAW_PBE Cr_pv 02Aug2007\", \"kpoints\": [20, 21, 19], \"date_run\": \"2025.03.18  23:54:20\", \"vasp_version\": \"vasp.6.4.2 20Jul23\", \"resources_used\": {\"nodes\": 1, \"mpi_ranks\": 64, \"gpus_detected\": false, \"threads_per_rank\": 2}, \"calculation_type\": \"static\"}" parent_id=22437 step=6 variance=0.1560886800289154 loss=0.1560886800289154 pbc="T T T"
Cr      -0.05009727      -0.04750099      -0.04860533       0.41931581      -0.14624555       0.90769148
Cr       0.80836548       0.97945864       1.12093297      -0.41931581       0.14624617      -0.90769100
2
Lattice="2.401146684 -0.163180303 -0.506383429 -0.394999135 2.259837114 0.271456648 -0.292883063 -0.037740246 2.484741399" Properties=species:S:1:pos:R:3:forces:R:3 generation=8 config_type=bcc_distorted_aa source_path=/home/myless/Calc_VASP/MRS/job_gen_7-2025-04-10/Cr/Cr2_bcc_distorted_idx_2538 formula_string=Cr2 composition_str=Cr2 structure_index=2538 date_added_to_db=2025-04-14T00:13:57.282729 structure_id=22437 energy=-6.428567028045654 stress="-3.01173145167392 -0.47043236071167616 -1.0558388370161893 -0.47043236071167616 -3.639438900992357 -0.5237921332174765 -1.0558388370161893 -0.5237921332174765 -3.3564272753617255" calculation_info="_JSON {\"calculation_id\": 22432, \"calculator\": \"vasp\", \"calculation_source_path\": \"/home/myless/Calc_VASP/MRS/job_gen_7-2025-04-10/Cr/Cr2_bcc_distorted_idx_2538\", \"nbands\": 64, \"parser\": \"ase_outcar\", \"potcar\": \"PAW_PBE Cr_pv 02Aug2007\", \"kpoints\": [20, 21, 19], \"date_run\": \"2025.03.18  23:54:20\", \"vasp_version\": \"vasp.6.4.2 20Jul23\", \"resources_used\": {\"nodes\": 1, \"mpi_ranks\": 64, \"gpus_detected\": false, \"threads_per_rank\": 2}, \"calculation_type\": \"static\"}" parent_id=22437 step=7 variance=0.14976316690444946 loss=0.14976316690444946 pbc="T T T"
Cr      -0.05496655      -0.05211144      -0.05339571       0.48479137      -0.17148852       1.06068206
Cr       0.80356477       0.97443167       1.12361679      -0.48479071       0.17148824      -1.06068242
2
Lattice="2.401146684 -0.163180303 -0.506383429 -0.394999135 2.259837114 0.271456648 -0.292883063 -0.037740246 2.484741399" Properties=species:S:1:pos:R:3:forces:R:3 generation=8 config_type=bcc_distorted_aa source_path=/home/myless/Calc_VASP/MRS/job_gen_7-2025-04-10/Cr/Cr2_bcc_distorted_idx_2538 formula_string=Cr2 composition_str=Cr2 structure_index=2538 date_added_to_db=2025-04-14T00:13:57.282729 structure_id=22437 energy=-6.421066761016846 stress="-3.01173145167392 -0.47043236071167616 -1.0558388370161893 -0.47043236071167616 -3.639438900992357 -0.5237921332174765 -1.0558388370161893 -0.5237921332174765 -3.3564272753617255" calculation_info="_JSON {\"calculation_id\": 22432, \"calculator\": \"vasp\", \"calculation_source_path\": \"/home/myless/Calc_VASP/MRS/job_gen_7-2025-04-10/Cr/Cr2_bcc_distorted_idx_2538\", \"nbands\": 64, \"parser\": \"ase_outcar\", \"potcar\": \"PAW_PBE Cr_pv 02Aug2007\", \"kpoints\": [20, 21, 19], \"date_run\": \"2025.03.18  23:54:20\", \"vasp_version\": \"vasp.6.4.2 20Jul23\", \"resources_used\": {\"nodes\": 1, \"mpi_ranks\": 64, \"gpus_detected\": false, \"threads_per_rank\": 2}, \"calculation_type\": \"static\"}" parent_id=22437 step=8 variance=0.1436936855316162 loss=0.1436936855316162 pbc="T T T"
Cr      -0.05921888      -0.05617930      -0.05761513       0.54128766      -0.19397780       1.19618821
Cr       0.79931951       0.97000203       1.12598124      -0.54128754       0.19397815      -1.19618869
2
Lattice="2.401146684 -0.163180303 -0.506383429 -0.394999135 2.259837114 0.271456648 -0.292883063 -0.037740246 2.484741399" Properties=species:S:1:pos:R:3:forces:R:3 generation=8 config_type=bcc_distorted_aa source_path=/home/myless/Calc_VASP/MRS/job_gen_7-2025-04-10/Cr/Cr2_bcc_distorted_idx_2538 formula_string=Cr2 composition_str=Cr2 structure_index=2538 date_added_to_db=2025-04-14T00:13:57.282729 structure_id=22437 energy=-6.413684749603272 stress="-3.01173145167392 -0.47043236071167616 -1.0558388370161893 -0.47043236071167616 -3.639438900992357 -0.5237921332174765 -1.0558388370161893 -0.5237921332174765 -3.3564272753617255" calculation_info="_JSON {\"calculation_id\": 22432, \"calculator\": \"vasp\", \"calculation_source_path\": \"/home/myless/Calc_VASP/MRS/job_gen_7-2025-04-10/Cr/Cr2_bcc_distorted_idx_2538\", \"nbands\": 64, \"parser\": \"ase_outcar\", \"potcar\": \"PAW_PBE Cr_pv 02Aug2007\", \"kpoints\": [20, 21, 19], \"date_run\": \"2025.03.18  23:54:20\", \"vasp_version\": \"vasp.6.4.2 20Jul23\", \"resources_used\": {\"nodes\": 1, \"mpi_ranks\": 64, \"gpus_detected\": false, \"threads_per_rank\": 2}, \"calculation_type\": \"static\"}" parent_id=22437 step=9 variance=0.1380552053451538 loss=0.1380552053451538 pbc="T T T"
Cr      -0.06296062      -0.05979455      -0.06135717       0.59042490      -0.21413079       1.31706977
Cr       0.79554005       0.96607198       1.12807868      -0.59042484       0.21413036      -1.31707013
2
Lattice="2.401146684 -0.163180303 -0.506383429 -0.394999135 2.259837114 0.271456648 -0.292883063 -0.037740246 2.484741399" Properties=species:S:1:pos:R:3:forces:R:3 generation=8 config_type=bcc_distorted_aa source_path=/home/myless/Calc_VASP/MRS/job_gen_7-2025-04-10/Cr/Cr2_bcc_distorted_idx_2538 formula_string=Cr2 composition_str=Cr2 structure_index=2538 date_added_to_db=2025-04-14T00:13:57.282729 structure_id=22437 energy=-6.406530284881592 stress="-3.01173145167392 -0.47043236071167616 -1.0558388370161893 -0.47043236071167616 -3.639438900992357 -0.5237921332174765 -1.0558388370161893 -0.5237921332174765 -3.3564272753617255" calculation_info="_JSON {\"calculation_id\": 22432, \"calculator\": \"vasp\", \"calculation_source_path\": \"/home/myless/Calc_VASP/MRS/job_gen_7-2025-04-10/Cr/Cr2_bcc_distorted_idx_2538\", \"nbands\": 64, \"parser\": \"ase_outcar\", \"potcar\": \"PAW_PBE Cr_pv 02Aug2007\", \"kpoints\": [20, 21, 19], \"date_run\": \"2025.03.18  23:54:20\", \"vasp_version\": \"vasp.6.4.2 20Jul23\", \"resources_used\": {\"nodes\": 1, \"mpi_ranks\": 64, \"gpus_detected\": false, \"threads_per_rank\": 2}, \"calculation_type\": \"static\"}" parent_id=22437 step=10 variance=0.13290880620479584 loss=0.13290880620479584 pbc="T T T"
Cr      -0.06627307      -0.06302563      -0.06469314       0.63339508      -0.23224926       1.42547750
Cr       0.79215778       0.96256700       1.12994897      -0.63339525       0.23224977      -1.42547774
2
Lattice="2.401146684 -0.163180303 -0.506383429 -0.394999135 2.259837114 0.271456648 -0.292883063 -0.037740246 2.484741399" Properties=species:S:1:pos:R:3:forces:R:3 generation=8 config_type=bcc_distorted_aa source_path=/home/myless/Calc_VASP/MRS/job_gen_7-2025-04-10/Cr/Cr2_bcc_distorted_idx_2538 formula_string=Cr2 composition_str=Cr2 structure_index=2538 date_added_to_db=2025-04-14T00:13:57.282729 structure_id=22437 energy=-6.39966230392456 stress="-3.01173145167392 -0.47043236071167616 -1.0558388370161893 -0.47043236071167616 -3.639438900992357 -0.5237921332174765 -1.0558388370161893 -0.5237921332174765 -3.3564272753617255" calculation_info="_JSON {\"calculation_id\": 22432, \"calculator\": \"vasp\", \"calculation_source_path\": \"/home/myless/Calc_VASP/MRS/job_gen_7-2025-04-10/Cr/Cr2_bcc_distorted_idx_2538\", \"nbands\": 64, \"parser\": \"ase_outcar\", \"potcar\": \"PAW_PBE Cr_pv 02Aug2007\", \"kpoints\": [20, 21, 19], \"date_run\": \"2025.03.18  23:54:20\", \"vasp_version\": \"vasp.6.4.2 20Jul23\", \"resources_used\": {\"nodes\": 1, \"mpi_ranks\": 64, \"gpus_detected\": false, \"threads_per_rank\": 2}, \"calculation_type\": \"static\"}" parent_id=22437 step=11 variance=0.12826791405677795 loss=0.12826791405677795 pbc="T T T"
Cr      -0.06921802      -0.06592615      -0.06767905       0.67113984      -0.24859361       1.52308750
Cr       0.78911882       0.95942853       1.13162339      -0.67114007       0.24859348      -1.52308631
2
Lattice="2.401146684 -0.163180303 -0.506383429 -0.394999135 2.259837114 0.271456648 -0.292883063 -0.037740246 2.484741399" Properties=species:S:1:pos:R:3:forces:R:3 generation=8 config_type=bcc_distorted_aa source_path=/home/myless/Calc_VASP/MRS/job_gen_7-2025-04-10/Cr/Cr2_bcc_distorted_idx_2538 formula_string=Cr2 composition_str=Cr2 structure_index=2538 date_added_to_db=2025-04-14T00:13:57.282729 structure_id=22437 energy=-6.3931268692016605 stress="-3.01173145167392 -0.47043236071167616 -1.0558388370161893 -0.47043236071167616 -3.639438900992357 -0.5237921332174765 -1.0558388370161893 -0.5237921332174765 -3.3564272753617255" calculation_info="_JSON {\"calculation_id\": 22432, \"calculator\": \"vasp\", \"calculation_source_path\": \"/home/myless/Calc_VASP/MRS/job_gen_7-2025-04-10/Cr/Cr2_bcc_distorted_idx_2538\", \"nbands\": 64, \"parser\": \"ase_outcar\", \"potcar\": \"PAW_PBE Cr_pv 02Aug2007\", \"kpoints\": [20, 21, 19], \"date_run\": \"2025.03.18  23:54:20\", \"vasp_version\": \"vasp.6.4.2 20Jul23\", \"resources_used\": {\"nodes\": 1, \"mpi_ranks\": 64, \"gpus_detected\": false, \"threads_per_rank\": 2}, \"calculation_type\": \"static\"}" parent_id=22437 step=12 variance=0.12412837147712708 loss=0.12412837147712708 pbc="T T T"
Cr      -0.07184484      -0.06853921      -0.07035984       0.70437616      -0.26334375       1.61119044
Cr       0.78637970       0.95660950       1.13312730      -0.70437634       0.26334327      -1.61119044
2
Lattice="2.401146684 -0.163180303 -0.506383429 -0.394999135 2.259837114 0.271456648 -0.292883063 -0.037740246 2.484741399" Properties=species:S:1:pos:R:3:forces:R:3 generation=8 config_type=bcc_distorted_aa source_path=/home/myless/Calc_VASP/MRS/job_gen_7-2025-04-10/Cr/Cr2_bcc_distorted_idx_2538 formula_string=Cr2 composition_str=Cr2 structure_index=2538 date_added_to_db=2025-04-14T00:13:57.282729 structure_id=22437 energy=-6.386953353881836 stress="-3.01173145167392 -0.47043236071167616 -1.0558388370161893 -0.47043236071167616 -3.639438900992357 -0.5237921332174765 -1.0558388370161893 -0.5237921332174765 -3.3564272753617255" calculation_info="_JSON {\"calculation_id\": 22432, \"calculator\": \"vasp\", \"calculation_source_path\": \"/home/myless/Calc_VASP/MRS/job_gen_7-2025-04-10/Cr/Cr2_bcc_distorted_idx_2538\", \"nbands\": 64, \"parser\": \"ase_outcar\", \"potcar\": \"PAW_PBE Cr_pv 02Aug2007\", \"kpoints\": [20, 21, 19], \"date_run\": \"2025.03.18  23:54:20\", \"vasp_version\": \"vasp.6.4.2 20Jul23\", \"resources_used\": {\"nodes\": 1, \"mpi_ranks\": 64, \"gpus_detected\": false, \"threads_per_rank\": 2}, \"calculation_type\": \"static\"}" parent_id=22437 step=13 variance=0.12043961882591248 loss=0.12043961882591248 pbc="T T T"
Cr      -0.07419498      -0.07090022      -0.07277275       0.73374265      -0.27666038       1.69092870
Cr       0.78390428       0.95407096       1.13448134      -0.73374224       0.27666032      -1.69093001
2
Lattice="2.401146684 -0.163180303 -0.506383429 -0.394999135 2.259837114 0.271456648 -0.292883063 -0.037740246 2.484741399" Properties=species:S:1:pos:R:3:forces:R:3 generation=8 config_type=bcc_distorted_aa source_path=/home/myless/Calc_VASP/MRS/job_gen_7-2025-04-10/Cr/Cr2_bcc_distorted_idx_2538 formula_string=Cr2 composition_str=Cr2 structure_index=2538 date_added_to_db=2025-04-14T00:13:57.282729 structure_id=22437 energy=-6.381146621704102 stress="-3.01173145167392 -0.47043236071167616 -1.0558388370161893 -0.47043236071167616 -3.639438900992357 -0.5237921332174765 -1.0558388370161893 -0.5237921332174765 -3.3564272753617255" calculation_info="_JSON {\"calculation_id\": 22432, \"calculator\": \"vasp\", \"calculation_source_path\": \"/home/myless/Calc_VASP/MRS/job_gen_7-2025-04-10/Cr/Cr2_bcc_distorted_idx_2538\", \"nbands\": 64, \"parser\": \"ase_outcar\", \"potcar\": \"PAW_PBE Cr_pv 02Aug2007\", \"kpoints\": [20, 21, 19], \"date_run\": \"2025.03.18  23:54:20\", \"vasp_version\": \"vasp.6.4.2 20Jul23\", \"resources_used\": {\"nodes\": 1, \"mpi_ranks\": 64, \"gpus_detected\": false, \"threads_per_rank\": 2}, \"calculation_type\": \"static\"}" parent_id=22437 step=14 variance=0.11717743426561356 loss=0.11717743426561356 pbc="T T T"
Cr      -0.07630126      -0.07303856      -0.07494880       0.75971413      -0.28867811       1.76315916
Cr       0.78166256       0.95178063       1.13570302      -0.75971431       0.28867826      -1.76315856
2
Lattice="2.401146684 -0.163180303 -0.506383429 -0.394999135 2.259837114 0.271456648 -0.292883063 -0.037740246 2.484741399" Properties=species:S:1:pos:R:3:forces:R:3 generation=8 config_type=bcc_distorted_aa source_path=/home/myless/Calc_VASP/MRS/job_gen_7-2025-04-10/Cr/Cr2_bcc_distorted_idx_2538 formula_string=Cr2 composition_str=Cr2 structure_index=2538 date_added_to_db=2025-04-14T00:13:57.282729 structure_id=22437 energy=-6.375704765319824 stress="-3.01173145167392 -0.47043236071167616 -1.0558388370161893 -0.47043236071167616 -3.639438900992357 -0.5237921332174765 -1.0558388370161893 -0.5237921332174765 -3.3564272753617255" calculation_info="_JSON {\"calculation_id\": 22432, \"calculator\": \"vasp\", \"calculation_source_path\": \"/home/myless/Calc_VASP/MRS/job_gen_7-2025-04-10/Cr/Cr2_bcc_distorted_idx_2538\", \"nbands\": 64, \"parser\": \"ase_outcar\", \"potcar\": \"PAW_PBE Cr_pv 02Aug2007\", \"kpoints\": [20, 21, 19], \"date_run\": \"2025.03.18  23:54:20\", \"vasp_version\": \"vasp.6.4.2 20Jul23\", \"resources_used\": {\"nodes\": 1, \"mpi_ranks\": 64, \"gpus_detected\": false, \"threads_per_rank\": 2}, \"calculation_type\": \"static\"}" parent_id=22437 step=15 variance=0.11429279297590256 loss=0.11429279297590256 pbc="T T T"
Cr      -0.07819219      -0.07497921      -0.07691427       0.78271532      -0.29951301       1.82869470
Cr       0.77962895       0.94971094       1.13680698      -0.78271538       0.29951334      -1.82869411
2
Lattice="2.401146684 -0.163180303 -0.506383429 -0.394999135 2.259837114 0.271456648 -0.292883063 -0.037740246 2.484741399" Properties=species:S:1:pos:R:3:forces:R:3 generation=8 config_type=bcc_distorted_aa source_path=/home/myless/Calc_VASP/MRS/job_gen_7-2025-04-10/Cr/Cr2_bcc_distorted_idx_2538 formula_string=Cr2 composition_str=Cr2 structure_index=2538 date_added_to_db=2025-04-14T00:13:57.282729 structure_id=22437 energy=-6.370628547668457 stress="-3.01173145167392 -0.47043236071167616 -1.0558388370161893 -0.47043236071167616 -3.639438900992357 -0.5237921332174765 -1.0558388370161893 -0.5237921332174765 -3.3564272753617255" calculation_info="_JSON {\"calculation_id\": 22432, \"calculator\": \"vasp\", \"calculation_source_path\": \"/home/myless/Calc_VASP/MRS/job_gen_7-2025-04-10/Cr/Cr2_bcc_distorted_idx_2538\", \"nbands\": 64, \"parser\": \"ase_outcar\", \"potcar\": \"PAW_PBE Cr_pv 02Aug2007\", \"kpoints\": [20, 21, 19], \"date_run\": \"2025.03.18  23:54:20\", \"vasp_version\": \"vasp.6.4.2 20Jul23\", \"resources_used\": {\"nodes\": 1, \"mpi_ranks\": 64, \"gpus_detected\": false, \"threads_per_rank\": 2}, \"calculation_type\": \"static\"}" parent_id=22437 step=16 variance=0.11174528300762177 loss=0.11174528300762177 pbc="T T T"
Cr      -0.07989237      -0.07674346      -0.07869172       0.80311263      -0.30928200       1.88818049
Cr       0.77778142       0.94783829       1.13780583      -0.80311280       0.30928245      -1.88818002
2
Lattice="2.401146684 -0.163180303 -0.506383429 -0.394999135 2.259837114 0.271456648 -0.292883063 -0.037740246 2.484741399" Properties=species:S:1:pos:R:3:forces:R:3 generation=8 config_type=bcc_distorted_aa source_path=/home/myless/Calc_VASP/MRS/job_gen_7-2025-04-10/Cr/Cr2_bcc_distorted_idx_2538 formula_string=Cr2 composition_str=Cr2 structure_index=2538 date_added_to_db=2025-04-14T00:13:57.282729 structure_id=22437 energy=-6.3659075736999515 stress="-3.01173145167392 -0.47043236071167616 -1.0558388370161893 -0.47043236071167616 -3.639438900992357 -0.5237921332174765 -1.0558388370161893 -0.5237921332174765 -3.3564272753617255" calculation_info="_JSON {\"calculation_id\": 22432, \"calculator\": \"vasp\", \"calculation_source_path\": \"/home/myless/Calc_VASP/MRS/job_gen_7-2025-04-10/Cr/Cr2_bcc_distorted_idx_2538\", \"nbands\": 64, \"parser\": \"ase_outcar\", \"potcar\": \"PAW_PBE Cr_pv 02Aug2007\", \"kpoints\": [20, 21, 19], \"date_run\": \"2025.03.18  23:54:20\", \"vasp_version\": \"vasp.6.4.2 20Jul23\", \"resources_used\": {\"nodes\": 1, \"mpi_ranks\": 64, \"gpus_detected\": false, \"threads_per_rank\": 2}, \"calculation_type\": \"static\"}" parent_id=22437 step=17 variance=0.10949968546628952 loss=0.10949968546628952 pbc="T T T"
Cr      -0.08142199      -0.07834976      -0.08030066       0.82118434      -0.31806338       1.94219375
Cr       0.77610106       0.94614228       1.13871046      -0.82118428       0.31806332      -1.94219398
2
Lattice="2.401146684 -0.163180303 -0.506383429 -0.394999135 2.259837114 0.271456648 -0.292883063 -0.037740246 2.484741399" Properties=species:S:1:pos:R:3:forces:R:3 generation=8 config_type=bcc_distorted_aa source_path=/home/myless/Calc_VASP/MRS/job_gen_7-2025-04-10/Cr/Cr2_bcc_distorted_idx_2538 formula_string=Cr2 composition_str=Cr2 structure_index=2538 date_added_to_db=2025-04-14T00:13:57.282729 structure_id=22437 energy=-6.36153211593628 stress="-3.01173145167392 -0.47043236071167616 -1.0558388370161893 -0.47043236071167616 -3.639438900992357 -0.5237921332174765 -1.0558388370161893 -0.5237921332174765 -3.3564272753617255" calculation_info="_JSON {\"calculation_id\": 22432, \"calculator\": \"vasp\", \"calculation_source_path\": \"/home/myless/Calc_VASP/MRS/job_gen_7-2025-04-10/Cr/Cr2_bcc_distorted_idx_2538\", \"nbands\": 64, \"parser\": \"ase_outcar\", \"potcar\": \"PAW_PBE Cr_pv 02Aug2007\", \"kpoints\": [20, 21, 19], \"date_run\": \"2025.03.18  23:54:20\", \"vasp_version\": \"vasp.6.4.2 20Jul23\", \"resources_used\": {\"nodes\": 1, \"mpi_ranks\": 64, \"gpus_detected\": false, \"threads_per_rank\": 2}, \"calculation_type\": \"static\"}" parent_id=22437 step=18 variance=0.10751964896917343 loss=0.10751964896917343 pbc="T T T"
Cr      -0.08279926      -0.07981426      -0.08175818       0.83722270      -0.32592720       1.99126792
Cr       0.77457116       0.94460514       1.13953039      -0.83722270       0.32592660      -1.99126792
2