6
Lattice="-0.070156193 3.665823226 3.669628435 3.713475955 0.013693845 3.731290365 3.755387716 3.746947736 -0.038626557" Properties=species:S:1:pos:R:3:forces:R:3 generation=6 composition=W6 config_type=C15 source_path=V-Cr-Ti-W-Zr/Fixed_Engrads/vcrtiwzr_fin_engrads/job_gen_6-2024-12-23/W/W6_C15_idx_3052 date_processed=2025-02-12T16:53:56.768055 structure_index=3052 structure_id=21701 energy=-74.88647 stress="0.047180254048555394 0.006024797687523465 -0.007773237880466269 0.006024797687523465 0.03916731725161871 -0.015526821248695132 -0.007773237880466269 -0.015526821248695132 0.041038933627160816" calculation_info="_JSON {\"calculation_id\": 21700, \"calculator\": \"vasp\", \"calculation_source_path\": \"\", \"error\": null, \"status\": \"completed\", \"gpu_count\": null, \"parameters\": {}, \"date_started\": null, \"gpu_memory_mb\": null, \"model_version\": null, \"date_completed\": null, \"runtime_seconds\": null}" pbc="T T T"
W        0.92484000       0.92831000       0.92029000       0.00000000       0.00000000       0.00000000
W        2.78158000       0.93516000       2.78593000       0.00000000       0.00000000       0.00000000
W        2.80253000       2.80178000       0.90097000       0.00000000       0.00000000       0.00000000
W        0.88976000       2.76122000       2.75510000       0.00000000       0.00000000       0.00000000
W        3.69935000       3.71323000       3.68115000       0.03813300       0.02239400      -0.01335200
W        5.54903000       5.56985000       5.52172000      -0.03813300      -0.02239400       0.01335200
6
Lattice="-0.070156193 3.665823226 3.669628435 3.713475955 0.013693845 3.731290365 3.755387716 3.746947736 -0.038626557" Properties=species:S:1:pos:R:3:forces:R:3 generation=8 composition=W6 config_type=C15_aa source_path=V-Cr-Ti-W-Zr/Fixed_Engrads/vcrtiwzr_fin_engrads/job_gen_6-2024-12-23/W/W6_C15_idx_3052 date_processed=2025-02-12T16:53:56.768055 structure_index=3052 structure_id=21701 energy=-74.8561294555664 stress="0.047180254048555394 0.006024797687523465 -0.007773237880466269 0.006024797687523465 0.03916731725161871 -0.015526821248695132 -0.007773237880466269 -0.015526821248695132 0.041038933627160816" calculation_info="_JSON {\"calculation_id\": 21700, \"calculator\": \"vasp\", \"calculation_source_path\": \"\", \"error\": null, \"status\": \"completed\", \"gpu_count\": null, \"parameters\": {}, \"date_started\": null, \"gpu_memory_mb\": null, \"model_version\": null, \"date_completed\": null, \"runtime_seconds\": null}" parent_id=21701 step=0 variance=0.21166366338729858 loss=0.21166366338729858 pbc="T T T"
W        0.92484000       0.92831000       0.92029000      -0.00007454      -0.00009374      -0.00004633
W        2.78158000       0.93516000       2.78593000      -0.00000806      -0.00004762       0.00006948
W        2.80253000       2.80178000       0.90097000       0.00004027       0.00008655      -0.00001581
W        0.88976000       2.76122000       2.75510000      -0.00000391       0.00003158       0.00004887
W        3.69935000       3.71323000       3.68115000       0.02122450       0.01743161      -0.00998824
W        5.54903000       5.56985000       5.52172000      -0.02117844      -0.01740844       0.00993219
6
Lattice="-0.070156193 3.665823226 3.669628435 3.713475955 0.013693845 3.731290365 3.755387716 3.746947736 -0.038626557" Properties=species:S:1:pos:R:3:forces:R:3 generation=8 composition=W6 config_type=C15_aa source_path=V-Cr-Ti-W-Zr/Fixed_Engrads/vcrtiwzr_fin_engrads/job_gen_6-2024-12-23/W/W6_C15_idx_3052 date_processed=2025-02-12T16:53:56.768055 structure_index=3052 structure_id=21701 energy=-74.85458526611328 stress="0.047180254048555394 0.006024797687523465 -0.007773237880466269 0.006024797687523465 0.03916731725161871 -0.015526821248695132 -0.007773237880466269 -0.015526821248695132 0.041038933627160816" calculation_info="_JSON {\"calculation_id\": 21700, \"calculator\": \"vasp\", \"calculation_source_path\": \"\", \"error\": null, \"status\": \"completed\", \"gpu_count\": null, \"parameters\": {}, \"date_started\": null, \"gpu_memory_mb\": null, \"model_version\": null, \"date_completed\": null, \"runtime_seconds\": null}" parent_id=21701 step=1 variance=0.08024910092353821 loss=0.08024910092353821 pbc="T T T"
W        0.93484000       0.93831000       0.93029000       0.01552987      -0.04011602       0.01478069
W        2.79158000       0.94516000       2.79593000      -0.01369474      -0.03963979      -0.01551196
W        2.81253000       2.81178000       0.91097000       0.01594434      -0.03859404      -0.01629598
W        0.89976000       2.77122000       2.76510000      -0.01739800      -0.04126799       0.01679391
W        3.70935000       3.72323000       3.69115000       0.02096978      -0.01235516      -0.00798153
W        5.55903000       5.55985000       5.53172000      -0.02135116       0.17197305       0.00821495
6
Lattice="-0.070156193 3.665823226 3.669628435 3.713475955 0.013693845 3.731290365 3.755387716 3.746947736 -0.038626557" Properties=species:S:1:pos:R:3:forces:R:3 generation=8 composition=W6 config_type=C15_aa source_path=V-Cr-Ti-W-Zr/Fixed_Engrads/vcrtiwzr_fin_engrads/job_gen_6-2024-12-23/W/W6_C15_idx_3052 date_processed=2025-02-12T16:53:56.768055 structure_index=3052 structure_id=21701 energy=-74.85342559814453 stress="0.047180254048555394 0.006024797687523465 -0.007773237880466269 0.006024797687523465 0.03916731725161871 -0.015526821248695132 -0.007773237880466269 -0.015526821248695132 0.041038933627160816" calculation_info="_JSON {\"calculation_id\": 21700, \"calculator\": \"vasp\", \"calculation_source_path\": \"\", \"error\": null, \"status\": \"completed\", \"gpu_count\": null, \"parameters\": {}, \"date_started\": null, \"gpu_memory_mb\": null, \"model_version\": null, \"date_completed\": null, \"runtime_seconds\": null}" parent_id=21701 step=2 variance=0.020594211295247078 loss=0.020594211295247078 pbc="T T T"
W        0.94149215       0.94511158       0.93699638       0.03360558      -0.05540965       0.01076777
W        2.79813143       0.95202701       2.80269281      -0.01482775      -0.06580622      -0.03961938
W        2.81907204       2.81860799       0.91786462       0.02693819      -0.06729604      -0.04332652
W        0.90644420       2.77863476       2.77173308      -0.02968896      -0.06653468       0.01117307
W        3.71890692       3.72226349       3.68942540      -0.00770898       0.05647808       0.07285055
W        5.56482447       5.56290424       5.53922472      -0.00831800       0.19856860      -0.01184555
6
Lattice="-0.070156193 3.665823226 3.669628435 3.713475955 0.013693845 3.731290365 3.755387716 3.746947736 -0.038626557" Properties=species:S:1:pos:R:3:forces:R:3 generation=8 composition=W6 config_type=C15_aa source_path=V-Cr-Ti-W-Zr/Fixed_Engrads/vcrtiwzr_fin_engrads/job_gen_6-2024-12-23/W/W6_C15_idx_3052 date_processed=2025-02-12T16:53:56.768055 structure_index=3052 structure_id=21701 energy=-74.85199279785157 stress="0.047180254048555394 0.006024797687523465 -0.007773237880466269 0.006024797687523465 0.03916731725161871 -0.015526821248695132 -0.007773237880466269 -0.015526821248695132 0.041038933627160816" calculation_info="_JSON {\"calculation_id\": 21700, \"calculator\": \"vasp\", \"calculation_source_path\": \"\", \"error\": null, \"status\": \"completed\", \"gpu_count\": null, \"parameters\": {}, \"date_started\": null, \"gpu_memory_mb\": null, \"model_version\": null, \"date_completed\": null, \"runtime_seconds\": null}" parent_id=21701 step=3 variance=0.010739997960627079 loss=0.010739997960627079 pbc="T T T"
W        0.94664341       0.95036318       0.94217806       0.04437044      -0.06799890       0.01151000
W        2.80320181       0.95730852       2.80790418      -0.01789469      -0.08299495      -0.05366670
W        2.82414320       2.82387320       0.92309211       0.03491581      -0.08690470      -0.05843092
W        0.91157870       2.78433278       2.77684793      -0.03688638      -0.08658703       0.01006368
W        3.72574803       3.72193905       3.69104406      -0.02429507       0.10563159       0.10559195
W        5.56938294       5.56528852       5.54416543      -0.00021004       0.21885400      -0.01506793
6
Lattice="-0.070156193 3.665823226 3.669628435 3.713475955 0.013693845 3.731290365 3.755387716 3.746947736 -0.038626557" Properties=species:S:1:pos:R:3:forces:R:3 generation=8 composition=W6 config_type=C15_aa source_path=V-Cr-Ti-W-Zr/Fixed_Engrads/vcrtiwzr_fin_engrads/job_gen_6-2024-12-23/W/W6_C15_idx_3052 date_processed=2025-02-12T16:53:56.768055 structure_index=3052 structure_id=21701 energy=-74.85061798095703 stress="0.047180254048555394 0.006024797687523465 -0.007773237880466269 0.006024797687523465 0.03916731725161871 -0.015526821248695132 -0.007773237880466269 -0.015526821248695132 0.041038933627160816" calculation_info="_JSON {\"calculation_id\": 21700, \"calculator\": \"vasp\", \"calculation_source_path\": \"\", \"error\": null, \"status\": \"completed\", \"gpu_count\": null, \"parameters\": {}, \"date_started\": null, \"gpu_memory_mb\": null, \"model_version\": null, \"date_completed\": null, \"runtime_seconds\": null}" parent_id=21701 step=4 variance=0.007917704991996288 loss=0.007917704991996288 pbc="T T T"
W        0.95086638       0.95466094       0.94642277       0.05227403      -0.07781316       0.01256082
W        2.80734669       0.96162469       2.81216813      -0.02055254      -0.09594320      -0.06416152
W        2.82830673       2.82818348       0.92734001       0.04075371      -0.10204594      -0.06918840
W        0.91576835       2.78898768       2.78104418      -0.04193135      -0.10249392       0.00914291
W        3.73118400       3.72180615       3.69298725      -0.03613650       0.14483371       0.12600309
W        5.57316507       5.56745074       5.54795207       0.00559262       0.23346260      -0.01435692
6
Lattice="-0.070156193 3.665823226 3.669628435 3.713475955 0.013693845 3.731290365 3.755387716 3.746947736 -0.038626557" Properties=species:S:1:pos:R:3:forces:R:3 generation=8 composition=W6 config_type=C15_aa source_path=V-Cr-Ti-W-Zr/Fixed_Engrads/vcrtiwzr_fin_engrads/job_gen_6-2024-12-23/W/W6_C15_idx_3052 date_processed=2025-02-12T16:53:56.768055 structure_index=3052 structure_id=21701 energy=-74.84934997558594 stress="0.047180254048555394 0.006024797687523465 -0.007773237880466269 0.006024797687523465 0.03916731725161871 -0.015526821248695132 -0.007773237880466269 -0.015526821248695132 0.041038933627160816" calculation_info="_JSON {\"calculation_id\": 21700, \"calculator\": \"vasp\", \"calculation_source_path\": \"\", \"error\": null, \"status\": \"completed\", \"gpu_count\": null, \"parameters\": {}, \"date_started\": null, \"gpu_memory_mb\": null, \"model_version\": null, \"date_completed\": null, \"runtime_seconds\": null}" parent_id=21701 step=5 variance=0.006634803023189306 loss=0.006634803023189306 pbc="T T T"
W        0.95443781       0.95829027       0.95001095       0.05851353      -0.08553127       0.01346084
W        2.81084173       0.96526643       2.81576968      -0.02270836      -0.10610326      -0.07262367
W        2.83183295       2.83182608       0.93090943       0.04511057      -0.11429026      -0.07738568
W        0.91929721       2.79291871       2.78459947      -0.04557142      -0.11546800       0.00797113
W        3.73569706       3.72175986       3.69487842      -0.04527292       0.17757194       0.14057502
W        5.57639873       5.56948525       5.55100513       0.00992858       0.24382086      -0.01199754
6
Lattice="-0.070156193 3.665823226 3.669628435 3.713475955 0.013693845 3.731290365 3.755387716 3.746947736 -0.038626557" Properties=species:S:1:pos:R:3:forces:R:3 generation=8 composition=W6 config_type=C15_aa source_path=V-Cr-Ti-W-Zr/Fixed_Engrads/vcrtiwzr_fin_engrads/job_gen_6-2024-12-23/W/W6_C15_idx_3052 date_processed=2025-02-12T16:53:56.768055 structure_index=3052 structure_id=21701 energy=-74.84820098876953 stress="0.047180254048555394 0.006024797687523465 -0.007773237880466269 0.006024797687523465 0.03916731725161871 -0.015526821248695132 -0.007773237880466269 -0.015526821248695132 0.041038933627160816" calculation_info="_JSON {\"calculation_id\": 21700, \"calculator\": \"vasp\", \"calculation_source_path\": \"\", \"error\": null, \"status\": \"completed\", \"gpu_count\": null, \"parameters\": {}, \"date_started\": null, \"gpu_memory_mb\": null, \"model_version\": null, \"date_completed\": null, \"runtime_seconds\": null}" parent_id=21701 step=6 variance=0.005930783227086067 loss=0.005930783227086067 pbc="T T T"
W        0.95751730       0.96141534       0.95310385       0.06360789      -0.09159253       0.01416068
W        2.81384693       0.96839996       2.81887212      -0.02443196      -0.11422012      -0.07970814
W        2.83487801       2.83496566       0.93396999       0.04836342      -0.12443866      -0.08381361
W        0.92232794       2.79630769       2.78767217      -0.04818711      -0.12626877       0.00646860
W        3.73953667       3.72176031       3.69664055      -0.05260662       0.20563073       0.15164882
W        5.57921452       5.57143216       5.55353051       0.01325454       0.25088930      -0.00875641
6
Lattice="-0.070156193 3.665823226 3.669628435 3.713475955 0.013693845 3.731290365 3.755387716 3.746947736 -0.038626557" Properties=species:S:1:pos:R:3:forces:R:3 generation=8 composition=W6 config_type=C15_aa source_path=V-Cr-Ti-W-Zr/Fixed_Engrads/vcrtiwzr_fin_engrads/job_gen_6-2024-12-23/W/W6_C15_idx_3052 date_processed=2025-02-12T16:53:56.768055 structure_index=3052 structure_id=21701 energy=-74.84717407226563 stress="0.047180254048555394 0.006024797687523465 -0.007773237880466269 0.006024797687523465 0.03916731725161871 -0.015526821248695132 -0.007773237880466269 -0.015526821248695132 0.041038933627160816" calculation_info="_JSON {\"calculation_id\": 21700, \"calculator\": \"vasp\", \"calculation_source_path\": \"\", \"error\": null, \"status\": \"completed\", \"gpu_count\": null, \"parameters\": {}, \"date_started\": null, \"gpu_memory_mb\": null, \"model_version\": null, \"date_completed\": null, \"runtime_seconds\": null}" parent_id=21701 step=7 variance=0.005509078502655029 loss=0.005509078502655029 pbc="T T T"
W        0.96020773       0.96414166       0.95580520       0.06785080      -0.09632380       0.01465734
W        2.81646537       0.97113187       2.82158038      -0.02581249      -0.12072668      -0.08578184
W        2.83754261       2.83770798       0.93662905       0.05074834      -0.13297054      -0.08891191
W        0.92496503       2.79927117       2.79036403      -0.04999346      -0.13538311       0.00464386
W        3.74285280       3.72178900       3.69825741      -0.05861015       0.23008886       0.16039477
W        5.58169850       5.57331482       5.55565120       0.01581681       0.25531524      -0.00500217
6
Lattice="-0.070156193 3.665823226 3.669628435 3.713475955 0.013693845 3.731290365 3.755387716 3.746947736 -0.038626557" Properties=species:S:1:pos:R:3:forces:R:3 generation=8 composition=W6 config_type=C15_aa source_path=V-Cr-Ti-W-Zr/Fixed_Engrads/vcrtiwzr_fin_engrads/job_gen_6-2024-12-23/W/W6_C15_idx_3052 date_processed=2025-02-12T16:53:56.768055 structure_index=3052 structure_id=21701 energy=-74.84625091552735 stress="0.047180254048555394 0.006024797687523465 -0.007773237880466269 0.006024797687523465 0.03916731725161871 -0.015526821248695132 -0.007773237880466269 -0.015526821248695132 0.041038933627160816" calculation_info="_JSON {\"calculation_id\": 21700, \"calculator\": \"vasp\", \"calculation_source_path\": \"\", \"error\": null, \"status\": \"completed\", \"gpu_count\": null, \"parameters\": {}, \"date_started\": null, \"gpu_memory_mb\": null, \"model_version\": null, \"date_completed\": null, \"runtime_seconds\": null}" parent_id=21701 step=8 variance=0.005249501671642065 loss=0.005249501671642065 pbc="T T T"
W        0.96258040       0.96654230       0.95818685       0.07143540      -0.09990809       0.01497718
W        2.81876837       0.97353584       2.82396702      -0.02690452      -0.12591274      -0.09106673
W        2.83989668       2.84012623       0.93896084       0.05239427      -0.14021273      -0.09295978
W        0.92728054       2.80188982       2.79274546      -0.05112662      -0.14315507       0.00248226
W        3.74574592       3.72183496       3.69973267      -0.06357562       0.25168175       0.16746822
W        5.58391060       5.57515344       5.55744626       0.01777712       0.25750694      -0.00090119
6
Lattice="-0.070156193 3.665823226 3.669628435 3.713475955 0.013693845 3.731290365 3.755387716 3.746947736 -0.038626557" Properties=species:S:1:pos:R:3:forces:R:3 generation=8 composition=W6 config_type=C15_aa source_path=V-Cr-Ti-W-Zr/Fixed_Engrads/vcrtiwzr_fin_engrads/job_gen_6-2024-12-23/W/W6_C15_idx_3052 date_processed=2025-02-12T16:53:56.768055 structure_index=3052 structure_id=21701 energy=-74.84544372558594 stress="0.047180254048555394 0.006024797687523465 -0.007773237880466269 0.006024797687523465 0.03916731725161871 -0.015526821248695132 -0.007773237880466269 -0.015526821248695132 0.041038933627160816" calculation_info="_JSON {\"calculation_id\": 21700, \"calculator\": \"vasp\", \"calculation_source_path\": \"\", \"error\": null, \"status\": \"completed\", \"gpu_count\": null, \"parameters\": {}, \"date_started\": null, \"gpu_memory_mb\": null, \"model_version\": null, \"date_completed\": null, \"runtime_seconds\": null}" parent_id=21701 step=9 variance=0.005095701199024916 loss=0.005095701199024916 pbc="T T T"
W        0.96468753       0.96867066       0.96030134       0.07447923      -0.10250086       0.01514489
W        2.82080806       0.97566557       2.82608503      -0.02776850      -0.12996840      -0.09572369
W        2.84199137       2.84227392       0.94101923       0.05343226      -0.14637527      -0.09613807
W        0.92932715       2.80422266       2.79486807      -0.05168217      -0.14984235      -0.00000713
W        3.74828949       3.72189210       3.70107473      -0.06771312       0.27093187       0.17330414
W        5.58589473       5.57696362       5.55897445       0.01925230       0.25775489       0.00341997
6
Lattice="-0.070156193 3.665823226 3.669628435 3.713475955 0.013693845 3.731290365 3.755387716 3.746947736 -0.038626557" Properties=species:S:1:pos:R:3:forces:R:3 generation=8 composition=W6 config_type=C15_aa source_path=V-Cr-Ti-W-Zr/Fixed_Engrads/vcrtiwzr_fin_engrads/job_gen_6-2024-12-23/W/W6_C15_idx_3052 date_processed=2025-02-12T16:53:56.768055 structure_index=3052 structure_id=21701 energy=-74.84473419189453 stress="0.047180254048555394 0.006024797687523465 -0.007773237880466269 0.006024797687523465 0.03916731725161871 -0.015526821248695132 -0.007773237880466269 -0.015526821248695132 0.041038933627160816" calculation_info="_JSON {\"calculation_id\": 21700, \"calculator\": \"vasp\", \"calculation_source_path\": \"\", \"error\": null, \"status\": \"completed\", \"gpu_count\": null, \"parameters\": {}, \"date_started\": null, \"gpu_memory_mb\": null, \"model_version\": null, \"date_completed\": null, \"runtime_seconds\": null}" parent_id=21701 step=10 variance=0.005018532741814852 loss=0.005018532741814852 pbc="T T T"
W        0.96656879       0.97056725       0.96218862       0.07707238      -0.10420203       0.01517875
W        2.82262416       0.97756193       2.82797475      -0.02843825      -0.13302955      -0.09986137
W        2.84386575       2.84419177       0.94284475       0.05390774      -0.15163100      -0.09857167
W        0.93114463       2.80631376       2.79677093      -0.05171453      -0.15560153      -0.00280885
W        3.75053734       3.72195619       3.70229340      -0.07116375       0.28823897       0.17817961
W        5.58768377       5.57876310       5.56027845       0.02033643       0.25622517       0.00788352
6
Lattice="-0.070156193 3.665823226 3.669628435 3.713475955 0.013693845 3.731290365 3.755387716 3.746947736 -0.038626557" Properties=species:S:1:pos:R:3:forces:R:3 generation=8 composition=W6 config_type=C15_aa source_path=V-Cr-Ti-W-Zr/Fixed_Engrads/vcrtiwzr_fin_engrads/job_gen_6-2024-12-23/W/W6_C15_idx_3052 date_processed=2025-02-12T16:53:56.768055 structure_index=3052 structure_id=21701 energy=-74.84412078857422 stress="0.047180254048555394 0.006024797687523465 -0.007773237880466269 0.006024797687523465 0.03916731725161871 -0.015526821248695132 -0.007773237880466269 -0.015526821248695132 0.041038933627160816" calculation_info="_JSON {\"calculation_id\": 21700, \"calculator\": \"vasp\", \"calculation_source_path\": \"\", \"error\": null, \"status\": \"completed\", \"gpu_count\": null, \"parameters\": {}, \"date_started\": null, \"gpu_memory_mb\": null, \"model_version\": null, \"date_completed\": null, \"runtime_seconds\": null}" parent_id=21701 step=11 variance=0.005003147292882204 loss=0.005003147292882204 pbc="T T T"
W        0.96825536       0.97226391       0.96388007       0.07927471      -0.10507772       0.01509699
W        2.82424778       0.97925684       2.82966786      -0.02894484      -0.13518763      -0.10355619
W        2.84555050       2.84591172       0.94446908       0.05388573      -0.15607566      -0.10035127
W        0.93276425       2.80819866       2.79848514      -0.05126718      -0.16057806      -0.00594048
W        3.75253021       3.72202443       3.70339824      -0.07401844       0.30391246       0.18230474
W        5.58930552       5.58056986       5.56139075       0.02107001       0.25300661       0.01244625
6
Lattice="-0.070156193 3.665823226 3.669628435 3.713475955 0.013693845 3.731290365 3.755387716 3.746947736 -0.038626557" Properties=species:S:1:pos:R:3:forces:R:3 generation=8 composition=W6 config_type=C15_aa source_path=V-Cr-Ti-W-Zr/Fixed_Engrads/vcrtiwzr_fin_engrads/job_gen_6-2024-12-23/W/W6_C15_idx_3052 date_processed=2025-02-12T16:53:56.768055 structure_index=3052 structure_id=21701 energy=-74.84360198974609 stress="0.047180254048555394 0.006024797687523465 -0.007773237880466269 0.006024797687523465 0.03916731725161871 -0.015526821248695132 -0.007773237880466269 -0.015526821248695132 0.041038933627160816" calculation_info="_JSON {\"calculation_id\": 21700, \"calculator\": \"vasp\", \"calculation_source_path\": \"\", \"error\": null, \"status\": \"completed\", \"gpu_count\": null, \"parameters\": {}, \"date_started\": null, \"gpu_memory_mb\": null, \"model_version\": null, \"date_completed\": null, \"runtime_seconds\": null}" parent_id=21701 step=12 variance=0.005043470300734043 loss=0.005043470300734043 pbc="T T T"
W        0.96977242       0.97378624       0.96540097       0.08114778      -0.10517661       0.01492296
W        2.82570418       0.98077593       2.83118985      -0.02932003      -0.13649693      -0.10688101
W        2.84707036       2.84745949       0.94591775       0.05340334      -0.15982166      -0.10153028
W        0.93421114       2.80990634       2.80003563      -0.05035689      -0.16488555      -0.00940285
W        3.75430176       3.72209490       3.70439903      -0.07636686       0.31820673       0.18582520
W        5.59078306       5.58239807       5.56233996       0.02149256       0.24817410       0.01706592
6
Lattice="-0.070156193 3.665823226 3.669628435 3.713475955 0.013693845 3.731290365 3.755387716 3.746947736 -0.038626557" Properties=species:S:1:pos:R:3:forces:R:3 generation=8 composition=W6 config_type=C15_aa source_path=V-Cr-Ti-W-Zr/Fixed_Engrads/vcrtiwzr_fin_engrads/job_gen_6-2024-12-23/W/W6_C15_idx_3052 date_processed=2025-02-12T16:53:56.768055 structure_index=3052 structure_id=21701 energy=-74.84316864013672 stress="0.047180254048555394 0.006024797687523465 -0.007773237880466269 0.006024797687523465 0.03916731725161871 -0.015526821248695132 -0.007773237880466269 -0.015526821248695132 0.041038933627160816" calculation_info="_JSON {\"calculation_id\": 21700, \"calculator\": \"vasp\", \"calculation_source_path\": \"\", \"error\": null, \"status\": \"completed\", \"gpu_count\": null, \"parameters\": {}, \"date_started\": null, \"gpu_memory_mb\": null, \"model_version\": null, \"date_completed\": null, \"runtime_seconds\": null}" parent_id=21701 step=13 variance=0.0051393043249845505 loss=0.0051393043249845505 pbc="T T T"
W        0.97114063       0.97515518       0.96677209       0.08270435      -0.10453618       0.01467349
W        2.82701417       0.98214022       2.83256166      -0.02960555      -0.13699926      -0.10986590
W        2.84844576       2.84885627       0.94721121       0.05248293      -0.16291144      -0.10214988
W        0.93550571       2.81146061       2.80144329      -0.04899089      -0.16862564      -0.01320916
W        3.75587702       3.72216601       3.70530425      -0.07824206       0.33133465       0.18886285
W        5.59213418       5.58426591       5.56314881       0.02165119       0.24173789       0.02168863
6
Lattice="-0.070156193 3.665823226 3.669628435 3.713475955 0.013693845 3.731290365 3.755387716 3.746947736 -0.038626557" Properties=species:S:1:pos:R:3:forces:R:3 generation=8 composition=W6 config_type=C15_aa source_path=V-Cr-Ti-W-Zr/Fixed_Engrads/vcrtiwzr_fin_engrads/job_gen_6-2024-12-23/W/W6_C15_idx_3052 date_processed=2025-02-12T16:53:56.768055 structure_index=3052 structure_id=21701 energy=-74.84281463623047 stress="0.047180254048555394 0.006024797687523465 -0.007773237880466269 0.006024797687523465 0.03916731725161871 -0.015526821248695132 -0.007773237880466269 -0.015526821248695132 0.041038933627160816" calculation_info="_JSON {\"calculation_id\": 21700, \"calculator\": \"vasp\", \"calculation_source_path\": \"\", \"error\": null, \"status\": \"completed\", \"gpu_count\": null, \"parameters\": {}, \"date_started\": null, \"gpu_memory_mb\": null, \"model_version\": null, \"date_completed\": null, \"runtime_seconds\": null}" parent_id=21701 step=14 variance=0.005297567695379257 loss=0.005297567695379257 pbc="T T T"
W        0.97237727       0.97638815       0.96801073       0.08398561      -0.10313268       0.01439197
W        2.82819498       0.98336711       2.83380079      -0.02980839      -0.13669674      -0.11254078
W        2.84969395       2.85011980       0.94836672       0.05112861      -0.16539769      -0.10222910
W        0.93666507       2.81288234       2.80272566      -0.04715517      -0.17187399      -0.01738666
W        3.75727836       3.72223638       3.70612259      -0.07969538       0.34349364       0.19148873
W        5.59337575       5.58619719       5.56383789       0.02154479       0.23360734       0.02627579
6
Lattice="-0.070156193 3.665823226 3.669628435 3.713475955 0.013693845 3.731290365 3.755387716 3.746947736 -0.038626557" Properties=species:S:1:pos:R:3:forces:R:3 generation=8 composition=W6 config_type=C15_aa source_path=V-Cr-Ti-W-Zr/Fixed_Engrads/vcrtiwzr_fin_engrads/job_gen_6-2024-12-23/W/W6_C15_idx_3052 date_processed=2025-02-12T16:53:56.768055 structure_index=3052 structure_id=21701 energy=-74.84253234863282 stress="0.047180254048555394 0.006024797687523465 -0.007773237880466269 0.006024797687523465 0.03916731725161871 -0.015526821248695132 -0.007773237880466269 -0.015526821248695132 0.041038933627160816" calculation_info="_JSON {\"calculation_id\": 21700, \"calculator\": \"vasp\", \"calculation_source_path\": \"\", \"error\": null, \"status\": \"completed\", \"gpu_count\": null, \"parameters\": {}, \"date_started\": null, \"gpu_memory_mb\": null, \"model_version\": null, \"date_completed\": null, \"runtime_seconds\": null}" parent_id=21701 step=15 variance=0.00553162582218647 loss=0.00553162582218647 pbc="T T T"
W        0.97349698       0.97749982       0.96913160       0.08499873      -0.10096719       0.01404685
W        2.82926069       0.98447111       2.83492198      -0.02993380      -0.13558705      -0.11493880
W        2.85082955       2.85126507       0.94939855       0.04933868      -0.16730507      -0.10177521
W        0.93770338       2.81418816       2.80389760      -0.04483716      -0.17464954      -0.02197026
W        3.75852448       3.72230570       3.70686004      -0.08075917       0.35483944       0.19378497
W        5.59452158       5.58821727       5.56441877       0.02119272       0.22366944       0.03085256
6
Lattice="-0.070156193 3.665823226 3.669628435 3.713475955 0.013693845 3.731290365 3.755387716 3.746947736 -0.038626557" Properties=species:S:1:pos:R:3:forces:R:3 generation=8 composition=W6 config_type=C15_aa source_path=V-Cr-Ti-W-Zr/Fixed_Engrads/vcrtiwzr_fin_engrads/job_gen_6-2024-12-23/W/W6_C15_idx_3052 date_processed=2025-02-12T16:53:56.768055 structure_index=3052 structure_id=21701 energy=-74.84232940673829 stress="0.047180254048555394 0.006024797687523465 -0.007773237880466269 0.006024797687523465 0.03916731725161871 -0.015526821248695132 -0.007773237880466269 -0.015526821248695132 0.041038933627160816" calculation_info="_JSON {\"calculation_id\": 21700, \"calculator\": \"vasp\", \"calculation_source_path\": \"\", \"error\": null, \"status\": \"completed\", \"gpu_count\": null, \"parameters\": {}, \"date_started\": null, \"gpu_memory_mb\": null, \"model_version\": null, \"date_completed\": null, \"runtime_seconds\": null}" parent_id=21701 step=16 variance=0.005868220701813698 loss=0.005868220701813698 pbc="T T T"
W        0.97451230       0.97850269       0.97014724       0.08572906      -0.09798429       0.01365080
W        2.83022357       0.98546456       2.83593788      -0.02997868      -0.13361931      -0.11706106
W        2.85186492       2.85230488       0.95031842       0.04710763      -0.16861527      -0.10077377
W        0.93863264       2.81539412       2.80497210      -0.04200374      -0.17699650      -0.02701152
W        3.75962940       3.72237260       3.70751996      -0.08145025       0.36555013       0.19583836
W        5.59558426       5.59036451       5.56490853       0.02059597       0.21166524       0.03535713
6