6
Lattice="0.08628731 3.595801866 4.003640088 3.831403736 0.030586935 3.974151361 3.765932641 3.935289556 0.112730673" Properties=species:S:1:pos:R:3:forces:R:3 batch_id=T generation=6 composition=V6 config_type=C15 source_path=V-Cr-Ti-W-Zr/Fixed_Engrads/vcrtiwzr_fin_engrads/job_gen_6-2024-12-23/V/V6_C15_idx_3068 temperature=T date_processed=2025-01-03T17:40:30.494775 structure_type=T structure_index=3068 adversarial_step=T structure_id=8377 energy=-49.94234 stress="0.1712216284013823 0.002769763297247584 0.002538839942608155 0.002769763297247584 0.17120731662095665 -0.0015427200521536907 0.002538839942608155 -0.0015427200521536907 0.17943228372440873" calculation_info="_JSON {\"calculation_id\": 8377, \"calculator\": \"vasp\", \"calculation_source_path\": \"\", \"error\": null, \"status\": \"completed\", \"gpu_count\": null, \"parameters\": {}, \"date_started\": null, \"gpu_memory_mb\": null, \"model_version\": null, \"date_completed\": null, \"runtime_seconds\": null}" pbc="T T T"
V        0.96045000       0.94521000       1.01132000       0.00000000       0.00000000       0.00000000
V        2.87615000       0.96050000       2.99839000       0.00000000       0.00000000       0.00000000
V        2.84342000       2.91285000       1.06768000       0.00000000       0.00000000       0.00000000
V        1.00360000       2.74311000       3.01314000       0.00000000       0.00000000       0.00000000
V        3.84181000       3.78084000       4.04526000      -0.00199800      -0.00584500       0.02013100
V        5.76272000       5.67126000       6.06789000       0.00199800       0.00584500      -0.02013100
6
Lattice="0.08628731 3.595801866 4.003640088 3.831403736 0.030586935 3.974151361 3.765932641 3.935289556 0.112730673" Properties=species:S:1:pos:R:3:forces:R:3 batch_id=T generation=8 composition=V6 config_type=C15_aa source_path=V-Cr-Ti-W-Zr/Fixed_Engrads/vcrtiwzr_fin_engrads/job_gen_6-2024-12-23/V/V6_C15_idx_3068 temperature=T date_processed=2025-01-03T17:40:30.494775 structure_type=T structure_index=3068 adversarial_step=T structure_id=8377 energy=-49.95829849243164 stress="0.1712216284013823 0.002769763297247584 0.002538839942608155 0.002769763297247584 0.17120731662095665 -0.0015427200521536907 0.002538839942608155 -0.0015427200521536907 0.17943228372440873" calculation_info="_JSON {\"calculation_id\": 8377, \"calculator\": \"vasp\", \"calculation_source_path\": \"\", \"error\": null, \"status\": \"completed\", \"gpu_count\": null, \"parameters\": {}, \"date_started\": null, \"gpu_memory_mb\": null, \"model_version\": null, \"date_completed\": null, \"runtime_seconds\": null}" parent_id=8377 step=0 variance=0.34738051891326904 loss=0.34738051891326904 pbc="T T T"
V        0.96045000       0.94521000       1.01132000       0.00001053      -0.00000690      -0.00001167
V        2.87615000       0.96050000       2.99839000       0.00002025       0.00000778       0.00000707
V        2.84342000       2.91285000       1.06768000      -0.00000352       0.00001744       0.00000530
V        1.00360000       2.74311000       3.01314000      -0.00001920      -0.00000166      -0.00001604
V        3.84181000       3.78084000       4.04526000      -0.01204256       0.00119719      -0.00935167
V        5.76272000       5.67126000       6.06789000       0.01203445      -0.00121381       0.00936703
6
Lattice="0.08628731 3.595801866 4.003640088 3.831403736 0.030586935 3.974151361 3.765932641 3.935289556 0.112730673" Properties=species:S:1:pos:R:3:forces:R:3 batch_id=T generation=8 composition=V6 config_type=C15_aa source_path=V-Cr-Ti-W-Zr/Fixed_Engrads/vcrtiwzr_fin_engrads/job_gen_6-2024-12-23/V/V6_C15_idx_3068 temperature=T date_processed=2025-01-03T17:40:30.494775 structure_type=T structure_index=3068 adversarial_step=T structure_id=8377 energy=-49.95829544067383 stress="0.1712216284013823 0.002769763297247584 0.002538839942608155 0.002769763297247584 0.17120731662095665 -0.0015427200521536907 0.002538839942608155 -0.0015427200521536907 0.17943228372440873" calculation_info="_JSON {\"calculation_id\": 8377, \"calculator\": \"vasp\", \"calculation_source_path\": \"\", \"error\": null, \"status\": \"completed\", \"gpu_count\": null, \"parameters\": {}, \"date_started\": null, \"gpu_memory_mb\": null, \"model_version\": null, \"date_completed\": null, \"runtime_seconds\": null}" parent_id=8377 step=1 variance=0.34927818179130554 loss=0.34927818179130554 pbc="T T T"
V        0.97045000       0.95521000       1.02132000       0.00001023      -0.00000802      -0.00001060
V        2.88615000       0.97050000       3.00839000       0.00001841       0.00000722       0.00000566
V        2.85342000       2.92285000       1.07768000      -0.00000188       0.00001768       0.00000440
V        1.01360000       2.75311000       3.02314000      -0.00001941      -0.00000170      -0.00001517
V        3.85181000       3.79084000       4.05526000      -0.01204226       0.00119784      -0.00935283
V        5.77272000       5.68126000       6.07789000       0.01203482      -0.00121299       0.00936853
6
Lattice="0.08628731 3.595801866 4.003640088 3.831403736 0.030586935 3.974151361 3.765932641 3.935289556 0.112730673" Properties=species:S:1:pos:R:3:forces:R:3 batch_id=T generation=8 composition=V6 config_type=C15_aa source_path=V-Cr-Ti-W-Zr/Fixed_Engrads/vcrtiwzr_fin_engrads/job_gen_6-2024-12-23/V/V6_C15_idx_3068 temperature=T date_processed=2025-01-03T17:40:30.494775 structure_type=T structure_index=3068 adversarial_step=T structure_id=8377 energy=-49.95829772949219 stress="0.1712216284013823 0.002769763297247584 0.002538839942608155 0.002769763297247584 0.17120731662095665 -0.0015427200521536907 0.002538839942608155 -0.0015427200521536907 0.17943228372440873" calculation_info="_JSON {\"calculation_id\": 8377, \"calculator\": \"vasp\", \"calculation_source_path\": \"\", \"error\": null, \"status\": \"completed\", \"gpu_count\": null, \"parameters\": {}, \"date_started\": null, \"gpu_memory_mb\": null, \"model_version\": null, \"date_completed\": null, \"runtime_seconds\": null}" parent_id=8377 step=2 variance=0.43568480014801025 loss=0.43568480014801025 pbc="T T T"
V        0.98044883       0.96521006       1.03131963      -0.00008770      -0.00008444      -0.00012225
V        2.89614510       0.98049446       3.01838404      -0.00005790       0.00004451      -0.00006290
V        2.86341714       2.93284964       1.08767762      -0.00004825      -0.00000603      -0.00003516
V        1.02359829       2.76311025       3.03313962      -0.00004917      -0.00004487      -0.00008089
V        3.86177235       3.80084438       4.06518537      -0.01192553       0.00119515      -0.00912642
V        5.78267778       5.69122634       6.08787190       0.01216848      -0.00110438       0.00942758
6
Lattice="0.08628731 3.595801866 4.003640088 3.831403736 0.030586935 3.974151361 3.765932641 3.935289556 0.112730673" Properties=species:S:1:pos:R:3:forces:R:3 batch_id=T generation=8 composition=V6 config_type=C15_aa source_path=V-Cr-Ti-W-Zr/Fixed_Engrads/vcrtiwzr_fin_engrads/job_gen_6-2024-12-23/V/V6_C15_idx_3068 temperature=T date_processed=2025-01-03T17:40:30.494775 structure_type=T structure_index=3068 adversarial_step=T structure_id=8377 energy=-49.95711898803711 stress="0.1712216284013823 0.002769763297247584 0.002538839942608155 0.002769763297247584 0.17120731662095665 -0.0015427200521536907 0.002538839942608155 -0.0015427200521536907 0.17943228372440873" calculation_info="_JSON {\"calculation_id\": 8377, \"calculator\": \"vasp\", \"calculation_source_path\": \"\", \"error\": null, \"status\": \"completed\", \"gpu_count\": null, \"parameters\": {}, \"date_started\": null, \"gpu_memory_mb\": null, \"model_version\": null, \"date_completed\": null, \"runtime_seconds\": null}" parent_id=8377 step=3 variance=0.27617159485816956 loss=0.27617159485816956 pbc="T T T"
V        0.98989654       0.97271470       1.04054161      -0.03081884      -0.02717400      -0.03164794
V        2.90511602       0.98975115       3.02745330      -0.01921422      -0.01370212      -0.01988231
V        2.87094750       2.94079429       1.09592861      -0.01166808      -0.01910821      -0.00356640
V        1.03362428       2.76736011       3.04313065      -0.01532945      -0.00156334      -0.01875542
V        3.85935093       3.79929122       4.06276066       0.02724389       0.03232962       0.02656033
V        5.78064694       5.68988313       6.08488780       0.04978668       0.02921804       0.04729179
6
Lattice="0.08628731 3.595801866 4.003640088 3.831403736 0.030586935 3.974151361 3.765932641 3.935289556 0.112730673" Properties=species:S:1:pos:R:3:forces:R:3 batch_id=T generation=8 composition=V6 config_type=C15_aa source_path=V-Cr-Ti-W-Zr/Fixed_Engrads/vcrtiwzr_fin_engrads/job_gen_6-2024-12-23/V/V6_C15_idx_3068 temperature=T date_processed=2025-01-03T17:40:30.494775 structure_type=T structure_index=3068 adversarial_step=T structure_id=8377 energy=-49.95443115234375 stress="0.1712216284013823 0.002769763297247584 0.002538839942608155 0.002769763297247584 0.17120731662095665 -0.0015427200521536907 0.002538839942608155 -0.0015427200521536907 0.17943228372440873" calculation_info="_JSON {\"calculation_id\": 8377, \"calculator\": \"vasp\", \"calculation_source_path\": \"\", \"error\": null, \"status\": \"completed\", \"gpu_count\": null, \"parameters\": {}, \"date_started\": null, \"gpu_memory_mb\": null, \"model_version\": null, \"date_completed\": null, \"runtime_seconds\": null}" parent_id=8377 step=4 variance=0.18354539573192596 loss=0.18354539573192596 pbc="T T T"
V        0.99763613       0.97887028       1.04809573      -0.05583407      -0.04931363      -0.05737811
V        2.91247619       0.99732921       3.03487912      -0.03468199      -0.02476709      -0.03599648
V        2.87710223       2.94728556       1.10270746      -0.02090323      -0.03444427      -0.00653582
V        1.04181773       2.77083682       3.05129198      -0.02755420      -0.00262786      -0.03385292
V        3.85745051       3.79803561       4.06072682       0.05894275       0.05772552       0.05541071
V        5.77901084       5.68883714       6.08247301       0.08003078       0.05342726       0.07835258
6
Lattice="0.08628731 3.595801866 4.003640088 3.831403736 0.030586935 3.974151361 3.765932641 3.935289556 0.112730673" Properties=species:S:1:pos:R:3:forces:R:3 batch_id=T generation=8 composition=V6 config_type=C15_aa source_path=V-Cr-Ti-W-Zr/Fixed_Engrads/vcrtiwzr_fin_engrads/job_gen_6-2024-12-23/V/V6_C15_idx_3068 temperature=T date_processed=2025-01-03T17:40:30.494775 structure_type=T structure_index=3068 adversarial_step=T structure_id=8377 energy=-49.950965881347656 stress="0.1712216284013823 0.002769763297247584 0.002538839942608155 0.002769763297247584 0.17120731662095665 -0.0015427200521536907 0.002538839942608155 -0.0015427200521536907 0.17943228372440873" calculation_info="_JSON {\"calculation_id\": 8377, \"calculator\": \"vasp\", \"calculation_source_path\": \"\", \"error\": null, \"status\": \"completed\", \"gpu_count\": null, \"parameters\": {}, \"date_started\": null, \"gpu_memory_mb\": null, \"model_version\": null, \"date_completed\": null, \"runtime_seconds\": null}" parent_id=8377 step=5 variance=0.15733854472637177 loss=0.15733854472637177 pbc="T T T"
V        1.00417917       0.98407868       1.05448141      -0.07686654      -0.06800611      -0.07903432
V        2.91870602       1.00373119       3.04115478      -0.04751188      -0.03390308      -0.04945416
V        2.88229830       2.95276371       1.10844644      -0.02851510      -0.04714243      -0.00898710
V        1.04873513       2.77377320       3.05817658      -0.03765203      -0.00332789      -0.04637600
V        3.85588045       3.79698108       4.05898452       0.08537410       0.07899158       0.07934682
V        5.77761341       5.68797960       6.08044467       0.10517140       0.07338797       0.10450478
6
Lattice="0.08628731 3.595801866 4.003640088 3.831403736 0.030586935 3.974151361 3.765932641 3.935289556 0.112730673" Properties=species:S:1:pos:R:3:forces:R:3 batch_id=T generation=8 composition=V6 config_type=C15_aa source_path=V-Cr-Ti-W-Zr/Fixed_Engrads/vcrtiwzr_fin_engrads/job_gen_6-2024-12-23/V/V6_C15_idx_3068 temperature=T date_processed=2025-01-03T17:40:30.494775 structure_type=T structure_index=3068 adversarial_step=T structure_id=8377 energy=-49.94710922241211 stress="0.1712216284013823 0.002769763297247584 0.002538839942608155 0.002769763297247584 0.17120731662095665 -0.0015427200521536907 0.002538839942608155 -0.0015427200521536907 0.17943228372440873" calculation_info="_JSON {\"calculation_id\": 8377, \"calculator\": \"vasp\", \"calculation_source_path\": \"\", \"error\": null, \"status\": \"completed\", \"gpu_count\": null, \"parameters\": {}, \"date_started\": null, \"gpu_memory_mb\": null, \"model_version\": null, \"date_completed\": null, \"runtime_seconds\": null}" parent_id=8377 step=6 variance=0.1476082056760788 loss=0.1476082056760788 pbc="T T T"
V        1.00981982       0.98857233       1.05998643      -0.09489584      -0.08410966      -0.09761094
V        2.92408207       1.00924660       3.04656332      -0.05832150      -0.04156847      -0.06088297
V        2.88677248       2.95747948       1.11339912      -0.03489783      -0.05783726      -0.01101540
V        1.05469152       2.77630387       3.06410116      -0.04613706      -0.00374579      -0.05693498
V        3.85454777       3.79607618       4.05746725       0.10780547       0.09709384       0.09955550
V        5.77639794       5.68725520       6.07869981       0.12644675       0.09016736       0.12688881
6
Lattice="0.08628731 3.595801866 4.003640088 3.831403736 0.030586935 3.974151361 3.765932641 3.935289556 0.112730673" Properties=species:S:1:pos:R:3:forces:R:3 batch_id=T generation=8 composition=V6 config_type=C15_aa source_path=V-Cr-Ti-W-Zr/Fixed_Engrads/vcrtiwzr_fin_engrads/job_gen_6-2024-12-23/V/V6_C15_idx_3068 temperature=T date_processed=2025-01-03T17:40:30.494775 structure_type=T structure_index=3068 adversarial_step=T structure_id=8377 energy=-49.94309921264649 stress="0.1712216284013823 0.002769763297247584 0.002538839942608155 0.002769763297247584 0.17120731662095665 -0.0015427200521536907 0.002538839942608155 -0.0015427200521536907 0.17943228372440873" calculation_info="_JSON {\"calculation_id\": 8377, \"calculator\": \"vasp\", \"calculation_source_path\": \"\", \"error\": null, \"status\": \"completed\", \"gpu_count\": null, \"parameters\": {}, \"date_started\": null, \"gpu_memory_mb\": null, \"model_version\": null, \"date_completed\": null, \"runtime_seconds\": null}" parent_id=8377 step=7 variance=0.14295907318592072 loss=0.14295907318592072 pbc="T T T"
V        1.01474711       0.99250063       1.06479540      -0.11055598      -0.09816395      -0.11375837
V        2.92878255       1.01406144       3.05128654      -0.06752391      -0.04807100      -0.07069645
V        2.89067670       2.96159326       1.11772946      -0.04031823      -0.06695000      -0.01269525
V        1.05988878       2.77851459       3.06926817      -0.05332872      -0.00395483      -0.06595260
V        3.85339809       3.79528915       4.05613074       0.12705913       0.11267102       0.11682861
V        5.77532730       5.68663237       6.07717628       0.14466767       0.10446874       0.14627403
6
Lattice="0.08628731 3.595801866 4.003640088 3.831403736 0.030586935 3.974151361 3.765932641 3.935289556 0.112730673" Properties=species:S:1:pos:R:3:forces:R:3 batch_id=T generation=8 composition=V6 config_type=C15_aa source_path=V-Cr-Ti-W-Zr/Fixed_Engrads/vcrtiwzr_fin_engrads/job_gen_6-2024-12-23/V/V6_C15_idx_3068 temperature=T date_processed=2025-01-03T17:40:30.494775 structure_type=T structure_index=3068 adversarial_step=T structure_id=8377 energy=-49.93907241821289 stress="0.1712216284013823 0.002769763297247584 0.002538839942608155 0.002769763297247584 0.17120731662095665 -0.0015427200521536907 0.002538839942608155 -0.0015427200521536907 0.17943228372440873" calculation_info="_JSON {\"calculation_id\": 8377, \"calculator\": \"vasp\", \"calculation_source_path\": \"\", \"error\": null, \"status\": \"completed\", \"gpu_count\": null, \"parameters\": {}, \"date_started\": null, \"gpu_memory_mb\": null, \"model_version\": null, \"date_completed\": null, \"runtime_seconds\": null}" parent_id=8377 step=8 variance=0.14036153256893158 loss=0.14036153256893158 pbc="T T T"
V        1.01909193       0.99596716       1.06903610      -0.12428117      -0.11054703      -0.12792048
V        2.93293097       1.01830428       3.05545032      -0.07543200      -0.05362881      -0.07919715
V        2.89411562       2.96521582       1.12155108      -0.04495568      -0.07478748      -0.01409415
V        1.06446658       2.78046436       3.07381729      -0.05949287      -0.00398546      -0.07370611
V        3.85239522       3.79459851       4.05494272       0.14373657       0.12617058       0.13172713
V        5.77437638       5.68609086       6.07583197       0.16042520       0.11677825       0.16319075
6
Lattice="0.08628731 3.595801866 4.003640088 3.831403736 0.030586935 3.974151361 3.765932641 3.935289556 0.112730673" Properties=species:S:1:pos:R:3:forces:R:3 batch_id=T generation=8 composition=V6 config_type=C15_aa source_path=V-Cr-Ti-W-Zr/Fixed_Engrads/vcrtiwzr_fin_engrads/job_gen_6-2024-12-23/V/V6_C15_idx_3068 temperature=T date_processed=2025-01-03T17:40:30.494775 structure_type=T structure_index=3068 adversarial_step=T structure_id=8377 energy=-49.9351203918457 stress="0.1712216284013823 0.002769763297247584 0.002538839942608155 0.002769763297247584 0.17120731662095665 -0.0015427200521536907 0.002538839942608155 -0.0015427200521536907 0.17943228372440873" calculation_info="_JSON {\"calculation_id\": 8377, \"calculator\": \"vasp\", \"calculation_source_path\": \"\", \"error\": null, \"status\": \"completed\", \"gpu_count\": null, \"parameters\": {}, \"date_started\": null, \"gpu_memory_mb\": null, \"model_version\": null, \"date_completed\": null, \"runtime_seconds\": null}" parent_id=8377 step=9 variance=0.138773575425148 loss=0.138773575425148 pbc="T T T"
V        1.02295001       0.99904770       1.07280198      -0.13639322      -0.12152879      -0.14042695
V        2.93661797       1.02206934       3.05914670      -0.08227608      -0.05840466      -0.08661646
V        2.89716618       2.96842825       1.12494752      -0.04895079      -0.08156441      -0.01525963
V        1.06852695       2.78219621       3.07785062      -0.06479089      -0.00389603      -0.08042946
V        3.85151419       3.79398871       4.05388002       0.15825954       0.13794431       0.14467269
V        5.77352594       5.68561613       6.07463653       0.17415144       0.12744956       0.17805985
6
Lattice="0.08628731 3.595801866 4.003640088 3.831403736 0.030586935 3.974151361 3.765932641 3.935289556 0.112730673" Properties=species:S:1:pos:R:3:forces:R:3 batch_id=T generation=8 composition=V6 config_type=C15_aa source_path=V-Cr-Ti-W-Zr/Fixed_Engrads/vcrtiwzr_fin_engrads/job_gen_6-2024-12-23/V/V6_C15_idx_3068 temperature=T date_processed=2025-01-03T17:40:30.494775 structure_type=T structure_index=3068 adversarial_step=T structure_id=8377 energy=-49.93129425048828 stress="0.1712216284013823 0.002769763297247584 0.002538839942608155 0.002769763297247584 0.17120731662095665 -0.0015427200521536907 0.002538839942608155 -0.0015427200521536907 0.17943228372440873" calculation_info="_JSON {\"calculation_id\": 8377, \"calculator\": \"vasp\", \"calculation_source_path\": \"\", \"error\": null, \"status\": \"completed\", \"gpu_count\": null, \"parameters\": {}, \"date_started\": null, \"gpu_memory_mb\": null, \"model_version\": null, \"date_completed\": null, \"runtime_seconds\": null}" parent_id=8377 step=10 variance=0.13772889971733093 loss=0.13772889971733093 pbc="T T T"
V        1.02639424       1.00179995       1.07616415      -0.14715007      -0.13133547      -0.15153793
V        2.93991246       1.02542810       3.06244566      -0.08822691      -0.06253460      -0.09311758
V        2.89988650       2.97129209       1.12798213      -0.05240852      -0.08746146      -0.01623286
V        1.07214753       2.78374293       3.08144539      -0.06937109      -0.00371024      -0.08628199
V        3.85073535       3.79344726       4.05292440       0.17098467       0.14826897       0.15598488
V        5.77276153       5.68519721       6.07356736       0.18617192       0.13677272       0.19118547
6
Lattice="0.08628731 3.595801866 4.003640088 3.831403736 0.030586935 3.974151361 3.765932641 3.935289556 0.112730673" Properties=species:S:1:pos:R:3:forces:R:3 batch_id=T generation=8 composition=V6 config_type=C15_aa source_path=V-Cr-Ti-W-Zr/Fixed_Engrads/vcrtiwzr_fin_engrads/job_gen_6-2024-12-23/V/V6_C15_idx_3068 temperature=T date_processed=2025-01-03T17:40:30.494775 structure_type=T structure_index=3068 adversarial_step=T structure_id=8377 energy=-49.927633666992186 stress="0.1712216284013823 0.002769763297247584 0.002538839942608155 0.002769763297247584 0.17120731662095665 -0.0015427200521536907 0.002538839942608155 -0.0015427200521536907 0.17943228372440873" calculation_info="_JSON {\"calculation_id\": 8377, \"calculator\": \"vasp\", \"calculation_source_path\": \"\", \"error\": null, \"status\": \"completed\", \"gpu_count\": null, \"parameters\": {}, \"date_started\": null, \"gpu_memory_mb\": null, \"model_version\": null, \"date_completed\": null, \"runtime_seconds\": null}" parent_id=8377 step=11 variance=0.137017622590065 loss=0.137017622590065 pbc="T T T"
V        1.02948183       1.00426918       1.07917842      -0.15673424      -0.14010981      -0.16144721
V        2.94286847       1.02843682       3.06540228      -0.09343609      -0.06611232      -0.09885126
V        2.90232251       2.97385575       1.13070495      -0.05541208      -0.09260854      -0.01705220
V        1.07538924       2.78513017       3.08466238      -0.07335472      -0.00345563      -0.09139660
V        3.85004423       3.79296480       4.05206117       0.18218066       0.15734267       0.16592309
V        5.77207164       5.68482607       6.07260669       0.19675659       0.14494364       0.20282416
6
Lattice="0.08628731 3.595801866 4.003640088 3.831403736 0.030586935 3.974151361 3.765932641 3.935289556 0.112730673" Properties=species:S:1:pos:R:3:forces:R:3 batch_id=T generation=8 composition=V6 config_type=C15_aa source_path=V-Cr-Ti-W-Zr/Fixed_Engrads/vcrtiwzr_fin_engrads/job_gen_6-2024-12-23/V/V6_C15_idx_3068 temperature=T date_processed=2025-01-03T17:40:30.494775 structure_type=T structure_index=3068 adversarial_step=T structure_id=8377 energy=-49.92416152954102 stress="0.1712216284013823 0.002769763297247584 0.002538839942608155 0.002769763297247584 0.17120731662095665 -0.0015427200521536907 0.002538839942608155 -0.0015427200521536907 0.17943228372440873" calculation_info="_JSON {\"calculation_id\": 8377, \"calculator\": \"vasp\", \"calculation_source_path\": \"\", \"error\": null, \"status\": \"completed\", \"gpu_count\": null, \"parameters\": {}, \"date_started\": null, \"gpu_memory_mb\": null, \"model_version\": null, \"date_completed\": null, \"runtime_seconds\": null}" parent_id=8377 step=12 variance=0.136513814330101 loss=0.136513814330101 pbc="T T T"
V        1.03225886       1.00649195       1.08188978      -0.16530575      -0.14799817      -0.17031822
V        2.94552972       1.03114068       3.06806074      -0.09800751      -0.06922487      -0.10391988
V        2.90451092       2.97615805       1.13315617      -0.05803334      -0.09712295      -0.01774317
V        1.07830118       2.78637853       3.08755049      -0.07682502      -0.00315220      -0.09588552
V        3.84942920       3.79253363       4.05127860       0.19205746       0.16535485       0.17468297
V        5.77144730       5.68449619       6.07174051       0.20611425       0.15214337       0.21318385
6
Lattice="0.08628731 3.595801866 4.003640088 3.831403736 0.030586935 3.974151361 3.765932641 3.935289556 0.112730673" Properties=species:S:1:pos:R:3:forces:R:3 batch_id=T generation=8 composition=V6 config_type=C15_aa source_path=V-Cr-Ti-W-Zr/Fixed_Engrads/vcrtiwzr_fin_engrads/job_gen_6-2024-12-23/V/V6_C15_idx_3068 temperature=T date_processed=2025-01-03T17:40:30.494775 structure_type=T structure_index=3068 adversarial_step=T structure_id=8377 energy=-49.920877838134764 stress="0.1712216284013823 0.002769763297247584 0.002538839942608155 0.002769763297247584 0.17120731662095665 -0.0015427200521536907 0.002538839942608155 -0.0015427200521536907 0.17943228372440873" calculation_info="_JSON {\"calculation_id\": 8377, \"calculator\": \"vasp\", \"calculation_source_path\": \"\", \"error\": null, \"status\": \"completed\", \"gpu_count\": null, \"parameters\": {}, \"date_started\": null, \"gpu_memory_mb\": null, \"model_version\": null, \"date_completed\": null, \"runtime_seconds\": null}" parent_id=8377 step=13 variance=0.13615529239177704 loss=0.13615529239177704 pbc="T T T"
V        1.03476322       1.00849828       1.08433518      -0.17299953      -0.15511037      -0.17828867
V        2.94793203       1.03357687       3.07045746      -0.10204040      -0.07194264      -0.10841475
V        2.90648201       2.97823093       1.13536890      -0.06032071      -0.10108950      -0.01832910
V        1.08092357       2.78750520       3.09014989      -0.07985117      -0.00282150      -0.09983625
V        3.84888069       3.79214765       4.05056762       0.20080134       0.17245510       0.18243989
V        5.77088012       5.68420249       6.07095734       0.21441045       0.15850893       0.22242887
6
Lattice="0.08628731 3.595801866 4.003640088 3.831403736 0.030586935 3.974151361 3.765932641 3.935289556 0.112730673" Properties=species:S:1:pos:R:3:forces:R:3 batch_id=T generation=8 composition=V6 config_type=C15_aa source_path=V-Cr-Ti-W-Zr/Fixed_Engrads/vcrtiwzr_fin_engrads/job_gen_6-2024-12-23/V/V6_C15_idx_3068 temperature=T date_processed=2025-01-03T17:40:30.494775 structure_type=T structure_index=3068 adversarial_step=T structure_id=8377 energy=-49.91779556274414 stress="0.1712216284013823 0.002769763297247584 0.002538839942608155 0.002769763297247584 0.17120731662095665 -0.0015427200521536907 0.002538839942608155 -0.0015427200521536907 0.17943228372440873" calculation_info="_JSON {\"calculation_id\": 8377, \"calculator\": \"vasp\", \"calculation_source_path\": \"\", \"error\": null, \"status\": \"completed\", \"gpu_count\": null, \"parameters\": {}, \"date_started\": null, \"gpu_memory_mb\": null, \"model_version\": null, \"date_completed\": null, \"runtime_seconds\": null}" parent_id=8377 step=14 variance=0.13590459525585175 loss=0.13590459525585175 pbc="T T T"
V        1.03702657       1.01031327       1.08654547      -0.17991906      -0.16153610      -0.18546245
V        2.95010553       1.03577651       3.07262286      -0.10561495      -0.07430917      -0.11242104
V        2.90826094       2.98010101       1.13737076      -0.06233011      -0.10458092      -0.01882737
V        1.08329018       2.78852447       3.09249414      -0.08250690      -0.00246553      -0.10331760
V        3.84839043       3.79180141       4.04991965       0.20856977       0.17874971       0.18932742
V        5.77036393       5.68394071       6.07024765       0.22180125       0.16414206       0.23070106
6
Lattice="0.08628731 3.595801866 4.003640088 3.831403736 0.030586935 3.974151361 3.765932641 3.935289556 0.112730673" Properties=species:S:1:pos:R:3:forces:R:3 batch_id=T generation=8 composition=V6 config_type=C15_aa source_path=V-Cr-Ti-W-Zr/Fixed_Engrads/vcrtiwzr_fin_engrads/job_gen_6-2024-12-23/V/V6_C15_idx_3068 temperature=T date_processed=2025-01-03T17:40:30.494775 structure_type=T structure_index=3068 adversarial_step=T structure_id=8377 energy=-49.91491165161133 stress="0.1712216284013823 0.002769763297247584 0.002538839942608155 0.002769763297247584 0.17120731662095665 -0.0015427200521536907 0.002538839942608155 -0.0015427200521536907 0.17943228372440873" calculation_info="_JSON {\"calculation_id\": 8377, \"calculator\": \"vasp\", \"calculation_source_path\": \"\", \"error\": null, \"status\": \"completed\", \"gpu_count\": null, \"parameters\": {}, \"date_started\": null, \"gpu_memory_mb\": null, \"model_version\": null, \"date_completed\": null, \"runtime_seconds\": null}" parent_id=8377 step=15 variance=0.1357273906469345 loss=0.1357273906469345 pbc="T T T"
V        1.03907566       1.01195819       1.08854681      -0.18615477      -0.16734436      -0.19193399
V        2.95207553       1.03776580       3.07458266      -0.10879059      -0.07638032      -0.11599688
V        2.90986908       2.98179082       1.13918508      -0.06408954      -0.10766363      -0.01925742
V        1.08542938       2.78944824       3.09461150      -0.08483342      -0.00211357      -0.10639703
V        3.84795199       3.79149028       4.04932749       0.21547452       0.18434674       0.19546387
V        5.76989288       5.68370731       6.06960314       0.22839388       0.16915517       0.23812148
6