8
Lattice="5.131302343 0.014336897 -0.012802784 0.00534088 5.118901475 0.083204682 -0.00223328 -0.066767702 5.010316995" Properties=species:S:1:pos:R:3:forces:R:3 generation=6 composition=W8 config_type=A15 source_path=V-Cr-Ti-W-Zr/Fixed_Engrads/vcrtiwzr_fin_engrads/job_gen_6-2024-12-23/W/W8_A15_idx_2916 date_processed=2025-02-12T16:53:59.883868 structure_index=2916 structure_id=21766 energy=-102.83271 stress="0.027376956716606216 0.002267777442780171 -0.0018989354609861002 0.002267777442780171 0.021256170860235787 0.0027213728769946116 -0.0018989354609861002 0.0027213728769946116 -0.0381237057182254" calculation_info="_JSON {\"calculation_id\": 21765, \"calculator\": \"vasp\", \"calculation_source_path\": \"\", \"error\": null, \"status\": \"completed\", \"gpu_count\": null, \"parameters\": {}, \"date_started\": null, \"gpu_memory_mb\": null, \"model_version\": null, \"date_completed\": null, \"runtime_seconds\": null}" pbc="T T T"
W        0.00000000       0.00000000       0.00000000       0.00000000       0.00000000       0.00000000
W        2.56720000       2.53324000       2.54036000       0.00000000       0.00000000       0.00000000
W        1.28550000       2.56303000       0.03840000      -0.01040800       0.00397000       0.00348900
W        3.84891000       2.50344000       5.04232000       0.01040800      -0.00397000      -0.00348900
W        5.13152000       1.26068000       2.51316000      -0.00397400       0.01110300       0.00347300
W        5.13419000       3.82013000       2.55476000       0.00397400      -0.01110300      -0.00347300
W        2.57043000       5.10938000       1.32938000      -0.00159200      -0.00151200      -0.00158000
W        2.56932000       5.07599000       3.83454000       0.00159200       0.00151200       0.00158000
8
Lattice="5.131302343 0.014336897 -0.012802784 0.00534088 5.118901475 0.083204682 -0.00223328 -0.066767702 5.010316995" Properties=species:S:1:pos:R:3:forces:R:3 generation=8 composition=W8 config_type=A15_aa source_path=V-Cr-Ti-W-Zr/Fixed_Engrads/vcrtiwzr_fin_engrads/job_gen_6-2024-12-23/W/W8_A15_idx_2916 date_processed=2025-02-12T16:53:59.883868 structure_index=2916 structure_id=21766 energy=-102.68878173828125 stress="0.027376956716606216 0.002267777442780171 -0.0018989354609861002 0.002267777442780171 0.021256170860235787 0.0027213728769946116 -0.0018989354609861002 0.0027213728769946116 -0.0381237057182254" calculation_info="_JSON {\"calculation_id\": 21765, \"calculator\": \"vasp\", \"calculation_source_path\": \"\", \"error\": null, \"status\": \"completed\", \"gpu_count\": null, \"parameters\": {}, \"date_started\": null, \"gpu_memory_mb\": null, \"model_version\": null, \"date_completed\": null, \"runtime_seconds\": null}" parent_id=21766 step=0 variance=0.26272454857826233 loss=0.26272454857826233 pbc="T T T"
W        0.00000000       0.00000000       0.00000000      -0.00001266       0.00000333       0.00002174
W        2.56720000       2.53324000       2.54036000       0.00005896      -0.00008297      -0.00000685
W        1.28550000       2.56303000       0.03840000      -0.01356367       0.01069789       0.00828103
W        3.84891000       2.50344000       5.04232000       0.01354873      -0.01069499      -0.00826853
W        5.13152000       1.26068000       2.51316000      -0.01075134       0.01516982       0.00814385
W        5.13419000       3.82013000       2.55476000       0.01072639      -0.01517827      -0.00820047
W        2.57043000       5.10938000       1.32938000      -0.00865325      -0.00855414      -0.00166816
W        2.56932000       5.07599000       3.83454000       0.00864685       0.00863934       0.00169745
8
Lattice="5.131302343 0.014336897 -0.012802784 0.00534088 5.118901475 0.083204682 -0.00223328 -0.066767702 5.010316995" Properties=species:S:1:pos:R:3:forces:R:3 generation=8 composition=W8 config_type=A15_aa source_path=V-Cr-Ti-W-Zr/Fixed_Engrads/vcrtiwzr_fin_engrads/job_gen_6-2024-12-23/W/W8_A15_idx_2916 date_processed=2025-02-12T16:53:59.883868 structure_index=2916 structure_id=21766 energy=-102.67449340820312 stress="0.027376956716606216 0.002267777442780171 -0.0018989354609861002 0.002267777442780171 0.021256170860235787 0.0027213728769946116 -0.0018989354609861002 0.0027213728769946116 -0.0381237057182254" calculation_info="_JSON {\"calculation_id\": 21765, \"calculator\": \"vasp\", \"calculation_source_path\": \"\", \"error\": null, \"status\": \"completed\", \"gpu_count\": null, \"parameters\": {}, \"date_started\": null, \"gpu_memory_mb\": null, \"model_version\": null, \"date_completed\": null, \"runtime_seconds\": null}" parent_id=21766 step=1 variance=0.006405408028513193 loss=0.006405408028513193 pbc="T T T"
W       -0.01000000       0.01000000      -0.01000000       0.12603317      -0.02644814       0.24993066
W        2.55720000       2.52324000       2.53036000       0.22284475       0.30097488       0.12828681
W        1.27550000       2.57303000       0.04840000       0.03991666       0.00475238      -0.14224026
W        3.83891000       2.51344000       5.03232000       0.06582601      -0.01701469       0.10876127
W        5.14152000       1.27068000       2.52316000      -0.21724954       0.00355581      -0.21507053
W        5.14419000       3.83013000       2.56476000      -0.19056483      -0.02829557      -0.23013952
W        2.56043000       5.11938000       1.31938000       0.09852562      -0.12725696       0.04628313
W        2.57932000       5.08599000       3.82454000      -0.14533189      -0.11026776       0.05418859
8
Lattice="5.131302343 0.014336897 -0.012802784 0.00534088 5.118901475 0.083204682 -0.00223328 -0.066767702 5.010316995" Properties=species:S:1:pos:R:3:forces:R:3 generation=8 composition=W8 config_type=A15_aa source_path=V-Cr-Ti-W-Zr/Fixed_Engrads/vcrtiwzr_fin_engrads/job_gen_6-2024-12-23/W/W8_A15_idx_2916 date_processed=2025-02-12T16:53:59.883868 structure_index=2916 structure_id=21766 energy=-102.64891052246094 stress="0.027376956716606216 0.002267777442780171 -0.0018989354609861002 0.002267777442780171 0.021256170860235787 0.0027213728769946116 -0.0018989354609861002 0.0027213728769946116 -0.0381237057182254" calculation_info="_JSON {\"calculation_id\": 21765, \"calculator\": \"vasp\", \"calculation_source_path\": \"\", \"error\": null, \"status\": \"completed\", \"gpu_count\": null, \"parameters\": {}, \"date_started\": null, \"gpu_memory_mb\": null, \"model_version\": null, \"date_completed\": null, \"runtime_seconds\": null}" parent_id=21766 step=2 variance=0.0028696577064692974 loss=0.0028696577064692974 pbc="T T T"
W       -0.01675709       0.01669854      -0.01663052       0.21152028      -0.04383900       0.41497692
W        2.55048115       2.51653114       2.52362712       0.37290996       0.50274301       0.21539390
W        1.26864719       2.57973594       0.05503557       0.08596479       0.00055140      -0.24334320
W        3.83282949       2.52017505       5.02580840       0.08531524      -0.02157335       0.17944869
W        5.14821824       1.27740203       2.52984222      -0.35489807      -0.00500050      -0.36032215
W        5.15088812       3.83675491       2.57127482      -0.31804308      -0.03607166      -0.37112340
W        2.55375209       5.12606921       1.31275998       0.16489026      -0.20628953       0.07277177
W        2.58596568       5.09269108       3.81782717      -0.24765936      -0.19052041       0.09219740
8
Lattice="5.131302343 0.014336897 -0.012802784 0.00534088 5.118901475 0.083204682 -0.00223328 -0.066767702 5.010316995" Properties=species:S:1:pos:R:3:forces:R:3 generation=8 composition=W8 config_type=A15_aa source_path=V-Cr-Ti-W-Zr/Fixed_Engrads/vcrtiwzr_fin_engrads/job_gen_6-2024-12-23/W/W8_A15_idx_2916 date_processed=2025-02-12T16:53:59.883868 structure_index=2916 structure_id=21766 energy=-102.62049255371093 stress="0.027376956716606216 0.002267777442780171 -0.0018989354609861002 0.002267777442780171 0.021256170860235787 0.0027213728769946116 -0.0018989354609861002 0.0027213728769946116 -0.0381237057182254" calculation_info="_JSON {\"calculation_id\": 21765, \"calculator\": \"vasp\", \"calculation_source_path\": \"\", \"error\": null, \"status\": \"completed\", \"gpu_count\": null, \"parameters\": {}, \"date_started\": null, \"gpu_memory_mb\": null, \"model_version\": null, \"date_completed\": null, \"runtime_seconds\": null}" parent_id=21766 step=3 variance=0.0020765853114426136 loss=0.0020765853114426136 pbc="T T T"
W       -0.02199947       0.02187500      -0.02174235       0.27789807      -0.05697062       0.54193580
W        2.54528052       2.51133871       2.51840511       0.48925465       0.65878338       0.28304788
W        1.26330626       2.58492241       0.06015703       0.12366657      -0.00275750      -0.32185316
W        3.82827857       2.52541440       5.02082903       0.09608395      -0.02547098       0.23049133
W        5.15339568       1.28260551       2.53500220      -0.46082515      -0.01170577      -0.47035450
W        5.15606516       3.84185228       2.57625667      -0.41245395      -0.04191313      -0.47662276
W        2.54860099       5.13123338       1.30766773       0.21300387      -0.26713187       0.09058179
W        2.59109058       5.09787084       3.81263265      -0.32662797      -0.25283355       0.12277380
8
Lattice="5.131302343 0.014336897 -0.012802784 0.00534088 5.118901475 0.083204682 -0.00223328 -0.066767702 5.010316995" Properties=species:S:1:pos:R:3:forces:R:3 generation=8 composition=W8 config_type=A15_aa source_path=V-Cr-Ti-W-Zr/Fixed_Engrads/vcrtiwzr_fin_engrads/job_gen_6-2024-12-23/W/W8_A15_idx_2916 date_processed=2025-02-12T16:53:59.883868 structure_index=2916 structure_id=21766 energy=-102.59167175292968 stress="0.027376956716606216 0.002267777442780171 -0.0018989354609861002 0.002267777442780171 0.021256170860235787 0.0027213728769946116 -0.0018989354609861002 0.0027213728769946116 -0.0381237057182254" calculation_info="_JSON {\"calculation_id\": 21765, \"calculator\": \"vasp\", \"calculation_source_path\": \"\", \"error\": null, \"status\": \"completed\", \"gpu_count\": null, \"parameters\": {}, \"date_started\": null, \"gpu_memory_mb\": null, \"model_version\": null, \"date_completed\": null, \"runtime_seconds\": null}" parent_id=21766 step=4 variance=0.0017704961355775595 loss=0.0017704961355775595 pbc="T T T"
W       -0.02630647       0.02611397      -0.02592534       0.33244255      -0.06744750       0.64566076
W        2.54101641       2.50708074       2.51411610       0.58479464       0.78665000       0.33858436
W        1.25890645       2.58917293       0.06434966       0.15549923      -0.00548961      -0.38642934
W        3.82462690       2.52973431       5.01677913       0.10258023      -0.02900361       0.27001852
W        5.15763666       1.28687169       2.53922590      -0.54722929      -0.01721953      -0.55897295
W        5.16030555       3.84601409       2.58031229      -0.48705512      -0.04663283      -0.56089765
W        2.54438968       5.13545842       1.30351264       0.25024116      -0.31680527       0.10344789
W        2.59528348       5.10211348       3.80837368      -0.39127356      -0.30405167       0.14858818
8
Lattice="5.131302343 0.014336897 -0.012802784 0.00534088 5.118901475 0.083204682 -0.00223328 -0.066767702 5.010316995" Properties=species:S:1:pos:R:3:forces:R:3 generation=8 composition=W8 config_type=A15_aa source_path=V-Cr-Ti-W-Zr/Fixed_Engrads/vcrtiwzr_fin_engrads/job_gen_6-2024-12-23/W/W8_A15_idx_2916 date_processed=2025-02-12T16:53:59.883868 structure_index=2916 structure_id=21766 energy=-102.5634552001953 stress="0.027376956716606216 0.002267777442780171 -0.0018989354609861002 0.002267777442780171 0.021256170860235787 0.0027213728769946116 -0.0018989354609861002 0.0027213728769946116 -0.0381237057182254" calculation_info="_JSON {\"calculation_id\": 21765, \"calculator\": \"vasp\", \"calculation_source_path\": \"\", \"error\": null, \"status\": \"completed\", \"gpu_count\": null, \"parameters\": {}, \"date_started\": null, \"gpu_memory_mb\": null, \"model_version\": null, \"date_completed\": null, \"runtime_seconds\": null}" parent_id=21766 step=5 variance=0.001626158133149147 loss=0.001626158133149147 pbc="T T T"
W       -0.02995696       0.02969573      -0.02945945       0.37867102      -0.07605608       0.73318899
W        2.53740877       2.50347770       2.51048208       0.66573644       0.89475906       0.38559467
W        1.25516937       2.59276741       0.06789222       0.18306568      -0.00780656      -0.44120818
W        3.82159321       2.53341068       5.01337661       0.10642423      -0.03230832       0.30179602
W        5.16122128       1.29048002       2.54279387      -0.61998349      -0.02191176      -0.63276446
W        5.16388942       3.84952211       2.58372490      -0.54815817      -0.05055566      -0.63064814
W        2.54083689       5.13902515       1.30001247       0.28013906      -0.35865700       0.11309979
W        2.59882434       5.10569913       3.80477072      -0.44589481      -0.34746385       0.17094131
8
Lattice="5.131302343 0.014336897 -0.012802784 0.00534088 5.118901475 0.083204682 -0.00223328 -0.066767702 5.010316995" Properties=species:S:1:pos:R:3:forces:R:3 generation=8 composition=W8 config_type=A15_aa source_path=V-Cr-Ti-W-Zr/Fixed_Engrads/vcrtiwzr_fin_engrads/job_gen_6-2024-12-23/W/W8_A15_idx_2916 date_processed=2025-02-12T16:53:59.883868 structure_index=2916 structure_id=21766 energy=-102.53632507324218 stress="0.027376956716606216 0.002267777442780171 -0.0018989354609861002 0.002267777442780171 0.021256170860235787 0.0027213728769946116 -0.0018989354609861002 0.0027213728769946116 -0.0381237057182254" calculation_info="_JSON {\"calculation_id\": 21765, \"calculator\": \"vasp\", \"calculation_source_path\": \"\", \"error\": null, \"status\": \"completed\", \"gpu_count\": null, \"parameters\": {}, \"date_started\": null, \"gpu_memory_mb\": null, \"model_version\": null, \"date_completed\": null, \"runtime_seconds\": null}" parent_id=21766 step=6 variance=0.0015530752716585994 loss=0.0015530752716585994 pbc="T T T"
W       -0.03311216       0.03278171      -0.03250464       0.41861445      -0.08326246       0.80855119
W        2.53429645       2.50036897       2.50734271       0.73566353       0.98797095       0.42614180
W        1.25193288       2.59586698       0.07094468       0.20737140      -0.00980175      -0.48857966
W        3.81902081       2.53660276       5.01046038       0.10844038      -0.03546172       0.32796735
W        5.16431080       1.29359193       2.54586748      -0.68247032      -0.02598773      -0.69552559
W        5.16697809       3.85253816       2.58665573      -0.59936202      -0.05387878      -0.68967944
W        2.53778106       5.14209517       1.29700601       0.30470261      -0.39461428       0.12048890
W        2.60187389       5.10878910       3.80166272      -0.49296013      -0.38496426       0.19063541
8
Lattice="5.131302343 0.014336897 -0.012802784 0.00534088 5.118901475 0.083204682 -0.00223328 -0.066767702 5.010316995" Properties=species:S:1:pos:R:3:forces:R:3 generation=8 composition=W8 config_type=A15_aa source_path=V-Cr-Ti-W-Zr/Fixed_Engrads/vcrtiwzr_fin_engrads/job_gen_6-2024-12-23/W/W8_A15_idx_2916 date_processed=2025-02-12T16:53:59.883868 structure_index=2916 structure_id=21766 energy=-102.51050720214843 stress="0.027376956716606216 0.002267777442780171 -0.0018989354609861002 0.002267777442780171 0.021256170860235787 0.0027213728769946116 -0.0018989354609861002 0.0027213728769946116 -0.0381237057182254" calculation_info="_JSON {\"calculation_id\": 21765, \"calculator\": \"vasp\", \"calculation_source_path\": \"\", \"error\": null, \"status\": \"completed\", \"gpu_count\": null, \"parameters\": {}, \"date_started\": null, \"gpu_memory_mb\": null, \"model_version\": null, \"date_completed\": null, \"runtime_seconds\": null}" parent_id=21766 step=7 variance=0.0015167614910751581 loss=0.0015167614910751581 pbc="T T T"
W       -0.03587582       0.03547569      -0.03516508       0.45360249      -0.08935288       0.87433064
W        2.53157591       2.49765126       2.50459467       0.79687941       1.06940305       0.46159983
W        1.24909217       2.59857538       0.07360978       0.22911358      -0.01155055      -0.53007585
W        3.81681147       2.53941315       5.00792749       0.10908347      -0.03852030       0.34987101
W        5.16700894       1.29631109       2.54855043      -0.73687607      -0.02959729      -0.74968070
W        5.16967530       3.85516548       2.58920796      -0.64297456      -0.05670520      -0.74042618
W        2.53511767       5.14477232       1.29438897       0.32522640      -0.42591196       0.12621540
W        2.60453505       5.11148710       3.79894594      -0.53405458      -0.41776508       0.20816581
8
Lattice="5.131302343 0.014336897 -0.012802784 0.00534088 5.118901475 0.083204682 -0.00223328 -0.066767702 5.010316995" Properties=species:S:1:pos:R:3:forces:R:3 generation=8 composition=W8 config_type=A15_aa source_path=V-Cr-Ti-W-Zr/Fixed_Engrads/vcrtiwzr_fin_engrads/job_gen_6-2024-12-23/W/W8_A15_idx_2916 date_processed=2025-02-12T16:53:59.883868 structure_index=2916 structure_id=21766 energy=-102.48612670898437 stress="0.027376956716606216 0.002267777442780171 -0.0018989354609861002 0.002267777442780171 0.021256170860235787 0.0027213728769946116 -0.0018989354609861002 0.0027213728769946116 -0.0381237057182254" calculation_info="_JSON {\"calculation_id\": 21765, \"calculator\": \"vasp\", \"calculation_source_path\": \"\", \"error\": null, \"status\": \"completed\", \"gpu_count\": null, \"parameters\": {}, \"date_started\": null, \"gpu_memory_mb\": null, \"model_version\": null, \"date_completed\": null, \"runtime_seconds\": null}" parent_id=21766 step=8 variance=0.001501772552728653 loss=0.001501772552728653 pbc="T T T"
W       -0.03831948       0.03784963      -0.03751162       0.48454088      -0.09453733       0.93231499
W        2.52917498       2.49525274       2.50216604       0.85096836       1.14119899       0.49288949
W        1.24657436       2.60096451       0.07595891       0.24879305      -0.01310036      -0.56675684
W        3.81489788       2.54191242       5.00570699       0.10865184      -0.04151438       0.36843070
W        5.16938758       1.29870941       2.55091456      -0.78471631      -0.03282586      -0.79691041
W        5.17205292       3.85747573       2.59145248      -0.68054909      -0.05911539      -0.78454530
W        2.53277469       5.14712859       1.29208899       0.34258136      -0.45339498       0.13067994
W        2.60687933       5.11386509       3.79654851      -0.57027030      -0.44671068       0.22389755
8
Lattice="5.131302343 0.014336897 -0.012802784 0.00534088 5.118901475 0.083204682 -0.00223328 -0.066767702 5.010316995" Properties=species:S:1:pos:R:3:forces:R:3 generation=8 composition=W8 config_type=A15_aa source_path=V-Cr-Ti-W-Zr/Fixed_Engrads/vcrtiwzr_fin_engrads/job_gen_6-2024-12-23/W/W8_A15_idx_2916 date_processed=2025-02-12T16:53:59.883868 structure_index=2916 structure_id=21766 energy=-102.4632080078125 stress="0.027376956716606216 0.002267777442780171 -0.0018989354609861002 0.002267777442780171 0.021256170860235787 0.0027213728769946116 -0.0018989354609861002 0.0027213728769946116 -0.0381237057182254" calculation_info="_JSON {\"calculation_id\": 21765, \"calculator\": \"vasp\", \"calculation_source_path\": \"\", \"error\": null, \"status\": \"completed\", \"gpu_count\": null, \"parameters\": {}, \"date_started\": null, \"gpu_memory_mb\": null, \"model_version\": null, \"date_completed\": null, \"runtime_seconds\": null}" parent_id=21766 step=9 variance=0.0015003816224634647 loss=0.0015003816224634647 pbc="T T T"
W       -0.04049544       0.03995613      -0.03959507       0.51209593      -0.09897266       0.98377645
W        2.52704142       2.49312123       2.50000443       0.89910305       1.20497108       0.52072012
W        1.24432609       2.60308693       0.07804413       0.26680055      -0.01448777      -0.59941876
W        3.81323234       2.54415262       5.00374743       0.10732263      -0.04446825       0.38428524
W        5.17149925       1.30083968       2.55301235      -0.82709372      -0.03573257      -0.83841449
W        5.17416350       3.85952165       2.59344078      -0.71321374      -0.06118616      -0.82322073
W        2.53069964       5.14921671       1.29005449       0.35739541      -0.47769818       0.13415638
W        2.60895897       5.11597562       3.79441797      -0.60241020      -0.47242546       0.23811574
8
Lattice="5.131302343 0.014336897 -0.012802784 0.00534088 5.118901475 0.083204682 -0.00223328 -0.066767702 5.010316995" Properties=species:S:1:pos:R:3:forces:R:3 generation=8 composition=W8 config_type=A15_aa source_path=V-Cr-Ti-W-Zr/Fixed_Engrads/vcrtiwzr_fin_engrads/job_gen_6-2024-12-23/W/W8_A15_idx_2916 date_processed=2025-02-12T16:53:59.883868 structure_index=2916 structure_id=21766 energy=-102.441748046875 stress="0.027376956716606216 0.002267777442780171 -0.0018989354609861002 0.002267777442780171 0.021256170860235787 0.0027213728769946116 -0.0018989354609861002 0.0027213728769946116 -0.0381237057182254" calculation_info="_JSON {\"calculation_id\": 21765, \"calculator\": \"vasp\", \"calculation_source_path\": \"\", \"error\": null, \"status\": \"completed\", \"gpu_count\": null, \"parameters\": {}, \"date_started\": null, \"gpu_memory_mb\": null, \"model_version\": null, \"date_completed\": null, \"runtime_seconds\": null}" parent_id=21766 step=10 variance=0.0015080682933330536 loss=0.0015080682933330536 pbc="T T T"
W       -0.04244432       0.04183517      -0.04145672       0.53677166      -0.10276021       1.02973199
W        2.52513501       2.49121675       2.49806968       0.94217569       1.26188922       0.54560864
W        1.24230613       2.60498258       0.07990502       0.28342083      -0.01574356      -0.62864316
W        3.81177852       2.54617325       5.00200978       0.10523418      -0.04739792       0.39792421
W        5.17338394       1.30274189       2.55488372      -0.86484003      -0.03838743      -0.87512428
W        5.17604703       3.86134261       2.59521195      -0.74181306      -0.06293692      -0.85735738
W        2.52885222       5.15107663       1.28824503       0.37013704      -0.49929851       0.13685049
W        2.61081346       5.11785872       3.79251431      -0.63108647      -0.49536458       0.25100940
8
Lattice="5.131302343 0.014336897 -0.012802784 0.00534088 5.118901475 0.083204682 -0.00223328 -0.066767702 5.010316995" Properties=species:S:1:pos:R:3:forces:R:3 generation=8 composition=W8 config_type=A15_aa source_path=V-Cr-Ti-W-Zr/Fixed_Engrads/vcrtiwzr_fin_engrads/job_gen_6-2024-12-23/W/W8_A15_idx_2916 date_processed=2025-02-12T16:53:59.883868 structure_index=2916 structure_id=21766 energy=-102.42170104980468 stress="0.027376956716606216 0.002267777442780171 -0.0018989354609861002 0.002267777442780171 0.021256170860235787 0.0027213728769946116 -0.0018989354609861002 0.0027213728769946116 -0.0381237057182254" calculation_info="_JSON {\"calculation_id\": 21765, \"calculator\": \"vasp\", \"calculation_source_path\": \"\", \"error\": null, \"status\": \"completed\", \"gpu_count\": null, \"parameters\": {}, \"date_started\": null, \"gpu_memory_mb\": null, \"model_version\": null, \"date_completed\": null, \"runtime_seconds\": null}" parent_id=21766 step=11 variance=0.0015222681686282158 loss=0.0015222681686282158 pbc="T T T"
W       -0.04419760       0.04351822      -0.04312737       0.55899447      -0.10599448       1.07094669
W        2.52342434       2.48950787       2.49633025       0.98088169       1.31290758       0.56798303
W        1.24048224       2.60668284       0.08157255       0.29891372      -0.01688628      -0.65489948
W        3.81050852       2.54800536       5.00046350       0.10245886      -0.05031831       0.40971738
W        5.17507304       1.30444751       2.55655997      -0.89862204      -0.04082198      -0.90775502
W        5.17773490       3.86296958       2.59679700      -0.76700157      -0.06441982      -0.88766116
W        2.52720108       5.15273980       1.28662966       0.38115144      -0.51855564       0.13890734
W        2.61247408       5.11954581       3.79080613      -0.65677667      -0.51591098       0.26276129
8
Lattice="5.131302343 0.014336897 -0.012802784 0.00534088 5.118901475 0.083204682 -0.00223328 -0.066767702 5.010316995" Properties=species:S:1:pos:R:3:forces:R:3 generation=8 composition=W8 config_type=A15_aa source_path=V-Cr-Ti-W-Zr/Fixed_Engrads/vcrtiwzr_fin_engrads/job_gen_6-2024-12-23/W/W8_A15_idx_2916 date_processed=2025-02-12T16:53:59.883868 structure_index=2916 structure_id=21766 energy=-102.40303039550781 stress="0.027376956716606216 0.002267777442780171 -0.0018989354609861002 0.002267777442780171 0.021256170860235787 0.0027213728769946116 -0.0018989354609861002 0.0027213728769946116 -0.0381237057182254" calculation_info="_JSON {\"calculation_id\": 21765, \"calculator\": \"vasp\", \"calculation_source_path\": \"\", \"error\": null, \"status\": \"completed\", \"gpu_count\": null, \"parameters\": {}, \"date_started\": null, \"gpu_memory_mb\": null, \"model_version\": null, \"date_completed\": null, \"runtime_seconds\": null}" parent_id=21766 step=12 variance=0.001541721634566784 loss=0.001541721634566784 pbc="T T T"
W       -0.04578057       0.04503057      -0.04463172       0.57907724      -0.10875547       1.10804522
W        2.52188390       2.48796952       2.49476070       1.01577985       1.35879183       0.58817130
W        1.23882836       2.60821305       0.08307195       0.31346288      -0.01794473      -0.67857218
W        3.80940010       2.54967412       4.99908413       0.09906983      -0.05324397       0.41994944
W        5.17659186       1.30598198       2.55806637      -0.92895955      -0.04306776      -0.93687361
W        5.17925242       3.86442776       2.59822045      -0.78927898      -0.06565164      -0.91467714
W        2.52572084       5.15423157       1.28518311       0.39072102      -0.53577042       0.14045009
W        2.61396591       5.12106222       3.78926807      -0.67987251      -0.53435761       0.27350688
8
Lattice="5.131302343 0.014336897 -0.012802784 0.00534088 5.118901475 0.083204682 -0.00223328 -0.066767702 5.010316995" Properties=species:S:1:pos:R:3:forces:R:3 generation=8 composition=W8 config_type=A15_aa source_path=V-Cr-Ti-W-Zr/Fixed_Engrads/vcrtiwzr_fin_engrads/job_gen_6-2024-12-23/W/W8_A15_idx_2916 date_processed=2025-02-12T16:53:59.883868 structure_index=2916 structure_id=21766 energy=-102.38567199707032 stress="0.027376956716606216 0.002267777442780171 -0.0018989354609861002 0.002267777442780171 0.021256170860235787 0.0027213728769946116 -0.0018989354609861002 0.0027213728769946116 -0.0381237057182254" calculation_info="_JSON {\"calculation_id\": 21765, \"calculator\": \"vasp\", \"calculation_source_path\": \"\", \"error\": null, \"status\": \"completed\", \"gpu_count\": null, \"parameters\": {}, \"date_started\": null, \"gpu_memory_mb\": null, \"model_version\": null, \"date_completed\": null, \"runtime_seconds\": null}" parent_id=21766 step=13 variance=0.0015653108712285757 loss=0.0015653108712285757 pbc="T T T"
W       -0.04721406       0.04639305      -0.04599052       0.59728062      -0.11107695       1.14153552
W        2.52049283       2.48658087       2.49334003       1.04733360       1.40015829       0.60645753
W        1.23732303       2.60959399       0.08442371       0.32723230      -0.01892926      -0.69996613
W        3.80843540       2.55120011       4.99785166       0.09510927      -0.05618579       0.42884260
W        5.17796116       1.30736618       2.55942361      -0.95628089      -0.04514361      -0.96294367
W        5.18062036       3.86573818       2.59950232      -0.80905354      -0.06667453      -0.93884724
W        2.52439068       5.15557272       1.28388443       0.39906639      -0.55119598       0.14156739
W        2.61530954       5.12242869       3.78787936      -0.70068777      -0.55095220       0.28335419
8
Lattice="5.131302343 0.014336897 -0.012802784 0.00534088 5.118901475 0.083204682 -0.00223328 -0.066767702 5.010316995" Properties=species:S:1:pos:R:3:forces:R:3 generation=8 composition=W8 config_type=A15_aa source_path=V-Cr-Ti-W-Zr/Fixed_Engrads/vcrtiwzr_fin_engrads/job_gen_6-2024-12-23/W/W8_A15_idx_2916 date_processed=2025-02-12T16:53:59.883868 structure_index=2916 structure_id=21766 energy=-102.36955261230469 stress="0.027376956716606216 0.002267777442780171 -0.0018989354609861002 0.002267777442780171 0.021256170860235787 0.0027213728769946116 -0.0018989354609861002 0.0027213728769946116 -0.0381237057182254" calculation_info="_JSON {\"calculation_id\": 21765, \"calculator\": \"vasp\", \"calculation_source_path\": \"\", \"error\": null, \"status\": \"completed\", \"gpu_count\": null, \"parameters\": {}, \"date_started\": null, \"gpu_memory_mb\": null, \"model_version\": null, \"date_completed\": null, \"runtime_seconds\": null}" parent_id=21766 step=14 variance=0.0015924953622743487 loss=0.0015924953622743487 pbc="T T T"
W       -0.04851570       0.04762302      -0.04722183       0.61383384      -0.11303389       1.17185998
W        2.51923386       2.48532474       2.49205072       1.07592869       1.43753219       0.62306511
W        1.23594800       2.61084295       0.08564494       0.34037322      -0.01985429      -0.71935081
W        3.80759886       2.55260030       4.99674920       0.09060940      -0.05914976       0.43658766
W        5.17919828       1.30861737       2.56064897      -0.98094499      -0.04706603      -0.98635370
W        5.18185608       3.86691791       2.60065892      -0.82667458      -0.06751057      -0.96054476
W        2.52319312       5.15678065       1.28271615       0.40636140      -0.56502616       0.14234731
W        2.61652193       5.12366258       3.78662268      -0.71948683      -0.56589150       0.29238924
8