6
Lattice="0.032098714 3.759971569 3.724462847 3.75314214 0.011183131 3.731735872 3.741356797 3.731346267 0.05095429" Properties=species:S:1:pos:R:3:forces:R:3 generation=6 composition=W6 config_type=C15 source_path=V-Cr-Ti-W-Zr/Fixed_Engrads/vcrtiwzr_fin_engrads/job_gen_6-2024-12-23/W/W6_C15_idx_3025 date_processed=2025-02-12T16:53:55.621884 structure_index=3025 structure_id=21675 energy=-74.91963 stress="0.0372559861535086 0.0003797396567278633 0.009271075240495733 0.0003797396567278633 0.03830418519610944 0.007482539592928256 0.009271075240495733 0.007482539592928256 0.03428267476064772" calculation_info="_JSON {\"calculation_id\": 21674, \"calculator\": \"vasp\", \"calculation_source_path\": \"\", \"error\": null, \"status\": \"completed\", \"gpu_count\": null, \"parameters\": {}, \"date_started\": null, \"gpu_memory_mb\": null, \"model_version\": null, \"date_completed\": null, \"runtime_seconds\": null}" pbc="T T T"
W        0.94082000       0.93781000       0.93839000       0.00000000       0.00000000       0.00000000
W        2.81740000       0.94340000       2.80426000       0.00000000       0.00000000       0.00000000
W        2.81150000       2.80349000       0.96387000       0.00000000       0.00000000       0.00000000
W        0.95687000       2.81780000       2.80063000       0.00000000       0.00000000       0.00000000
W        3.76330000       3.75125000       3.75358000      -0.02253500      -0.02675100       0.00152900
W        5.64495000       5.62688000       5.63036000       0.02253500       0.02675100      -0.00152900
6
Lattice="0.032098714 3.759971569 3.724462847 3.75314214 0.011183131 3.731735872 3.741356797 3.731346267 0.05095429" Properties=species:S:1:pos:R:3:forces:R:3 generation=8 composition=W6 config_type=C15_aa source_path=V-Cr-Ti-W-Zr/Fixed_Engrads/vcrtiwzr_fin_engrads/job_gen_6-2024-12-23/W/W6_C15_idx_3025 date_processed=2025-02-12T16:53:55.621884 structure_index=3025 structure_id=21675 energy=-74.88745880126953 stress="0.0372559861535086 0.0003797396567278633 0.009271075240495733 0.0003797396567278633 0.03830418519610944 0.007482539592928256 0.009271075240495733 0.007482539592928256 0.03428267476064772" calculation_info="_JSON {\"calculation_id\": 21674, \"calculator\": \"vasp\", \"calculation_source_path\": \"\", \"error\": null, \"status\": \"completed\", \"gpu_count\": null, \"parameters\": {}, \"date_started\": null, \"gpu_memory_mb\": null, \"model_version\": null, \"date_completed\": null, \"runtime_seconds\": null}" parent_id=21675 step=0 variance=0.21216332912445068 loss=0.21216332912445068 pbc="T T T"
W        0.94082000       0.93781000       0.93839000       0.00012383       0.00013387       0.00013372
W        2.81740000       0.94340000       2.80426000      -0.00014466       0.00015048      -0.00010404
W        2.81150000       2.80349000       0.96387000      -0.00007896      -0.00010332       0.00009652
W        0.95687000       2.81780000       2.80063000       0.00014240      -0.00015293      -0.00011505
W        3.76330000       3.75125000       3.75358000      -0.01408869      -0.01623697       0.00003851
W        5.64495000       5.62688000       5.63036000       0.01404610       0.01620888      -0.00004968
6
Lattice="0.032098714 3.759971569 3.724462847 3.75314214 0.011183131 3.731735872 3.741356797 3.731346267 0.05095429" Properties=species:S:1:pos:R:3:forces:R:3 generation=8 composition=W6 config_type=C15_aa source_path=V-Cr-Ti-W-Zr/Fixed_Engrads/vcrtiwzr_fin_engrads/job_gen_6-2024-12-23/W/W6_C15_idx_3025 date_processed=2025-02-12T16:53:55.621884 structure_index=3025 structure_id=21675 energy=-74.88745880126953 stress="0.0372559861535086 0.0003797396567278633 0.009271075240495733 0.0003797396567278633 0.03830418519610944 0.007482539592928256 0.009271075240495733 0.007482539592928256 0.03428267476064772" calculation_info="_JSON {\"calculation_id\": 21674, \"calculator\": \"vasp\", \"calculation_source_path\": \"\", \"error\": null, \"status\": \"completed\", \"gpu_count\": null, \"parameters\": {}, \"date_started\": null, \"gpu_memory_mb\": null, \"model_version\": null, \"date_completed\": null, \"runtime_seconds\": null}" parent_id=21675 step=1 variance=0.2121601700782776 loss=0.2121601700782776 pbc="T T T"
W        0.95082000       0.94781000       0.94839000       0.00012533       0.00013313       0.00013390
W        2.82740000       0.95340000       2.81426000      -0.00014484       0.00015070      -0.00010525
W        2.82150000       2.81349000       0.97387000      -0.00007754      -0.00010420       0.00009683
W        0.96687000       2.82780000       2.81063000       0.00014254      -0.00015297      -0.00011610
W        3.77330000       3.76125000       3.76358000      -0.01408926      -0.01623638       0.00003846
W        5.65495000       5.63688000       5.64036000       0.01404392       0.01620982      -0.00004790
6
Lattice="0.032098714 3.759971569 3.724462847 3.75314214 0.011183131 3.731735872 3.741356797 3.731346267 0.05095429" Properties=species:S:1:pos:R:3:forces:R:3 generation=8 composition=W6 config_type=C15_aa source_path=V-Cr-Ti-W-Zr/Fixed_Engrads/vcrtiwzr_fin_engrads/job_gen_6-2024-12-23/W/W6_C15_idx_3025 date_processed=2025-02-12T16:53:55.621884 structure_index=3025 structure_id=21675 energy=-74.88746032714843 stress="0.0372559861535086 0.0003797396567278633 0.009271075240495733 0.0003797396567278633 0.03830418519610944 0.007482539592928256 0.009271075240495733 0.007482539592928256 0.03428267476064772" calculation_info="_JSON {\"calculation_id\": 21674, \"calculator\": \"vasp\", \"calculation_source_path\": \"\", \"error\": null, \"status\": \"completed\", \"gpu_count\": null, \"parameters\": {}, \"date_started\": null, \"gpu_memory_mb\": null, \"model_version\": null, \"date_completed\": null, \"runtime_seconds\": null}" parent_id=21675 step=2 variance=0.21209347248077393 loss=0.21209347248077393 pbc="T T T"
W        0.96083056       0.95780817       0.95839289      -0.00016678       0.00006029       0.00013139
W        2.83738769       0.96340328       2.82427047       0.00002214       0.00008969      -0.00001941
W        2.83148759       2.82348595       0.98387545       0.00018219       0.00006485       0.00001703
W        0.97687038       2.83780644       2.82063526      -0.00003076      -0.00017713      -0.00010981
W        3.78330031       3.77125604       3.77358166      -0.01412352      -0.01629736       0.00006885
W        5.66494082       5.64687656       5.65036806       0.01411671       0.01625963      -0.00008810
6
Lattice="0.032098714 3.759971569 3.724462847 3.75314214 0.011183131 3.731735872 3.741356797 3.731346267 0.05095429" Properties=species:S:1:pos:R:3:forces:R:3 generation=8 composition=W6 config_type=C15_aa source_path=V-Cr-Ti-W-Zr/Fixed_Engrads/vcrtiwzr_fin_engrads/job_gen_6-2024-12-23/W/W6_C15_idx_3025 date_processed=2025-02-12T16:53:55.621884 structure_index=3025 structure_id=21675 energy=-74.88728637695313 stress="0.0372559861535086 0.0003797396567278633 0.009271075240495733 0.0003797396567278633 0.03830418519610944 0.007482539592928256 0.009271075240495733 0.007482539592928256 0.03428267476064772" calculation_info="_JSON {\"calculation_id\": 21674, \"calculator\": \"vasp\", \"calculation_source_path\": \"\", \"error\": null, \"status\": \"completed\", \"gpu_count\": null, \"parameters\": {}, \"date_started\": null, \"gpu_memory_mb\": null, \"model_version\": null, \"date_completed\": null, \"runtime_seconds\": null}" parent_id=21675 step=3 variance=0.09962543100118637 loss=0.09962543100118637 pbc="T T T"
W        0.96993061       0.96468831       0.96767259       0.00630609       0.02356157       0.00449751
W        2.84740294       0.97132407       2.83332564      -0.02174456       0.04762952      -0.02724461
W        2.83858223       2.83349224       0.99150123       0.01169541      -0.03226227       0.00471908
W        0.98591894       2.84781440       2.82784575      -0.00171339      -0.02637247       0.00956424
W        3.79141091       3.78106190       3.78321313      -0.00996869      -0.02307618      -0.01874106
W        5.67334650       5.65661910       5.65584388       0.01542517       0.01051980       0.02720472
6
Lattice="0.032098714 3.759971569 3.724462847 3.75314214 0.011183131 3.731735872 3.741356797 3.731346267 0.05095429" Properties=species:S:1:pos:R:3:forces:R:3 generation=8 composition=W6 config_type=C15_aa source_path=V-Cr-Ti-W-Zr/Fixed_Engrads/vcrtiwzr_fin_engrads/job_gen_6-2024-12-23/W/W6_C15_idx_3025 date_processed=2025-02-12T16:53:55.621884 structure_index=3025 structure_id=21675 energy=-74.88705596923828 stress="0.0372559861535086 0.0003797396567278633 0.009271075240495733 0.0003797396567278633 0.03830418519610944 0.007482539592928256 0.009271075240495733 0.007482539592928256 0.03428267476064772" calculation_info="_JSON {\"calculation_id\": 21674, \"calculator\": \"vasp\", \"calculation_source_path\": \"\", \"error\": null, \"status\": \"completed\", \"gpu_count\": null, \"parameters\": {}, \"date_started\": null, \"gpu_memory_mb\": null, \"model_version\": null, \"date_completed\": null, \"runtime_seconds\": null}" parent_id=21675 step=4 variance=0.16118471324443817 loss=0.16118471324443817 pbc="T T T"
W        0.97712661       0.97038369       0.97531074       0.02002197       0.04200770       0.00912725
W        2.85560642       0.97797296       2.84094351      -0.04143761       0.08212985      -0.05793852
W        2.84438130       2.84192772       0.99780978       0.02003857      -0.06816106       0.00515248
W        0.99335761       2.85606277       2.83374571      -0.00674807      -0.04938138       0.01762194
W        3.79786169       3.78677801       3.78729199      -0.00471322      -0.00372635       0.00772628
W        5.68047692       5.66525093       5.66308060       0.01283842      -0.00286893       0.01831060
6
Lattice="0.032098714 3.759971569 3.724462847 3.75314214 0.011183131 3.731735872 3.741356797 3.731346267 0.05095429" Properties=species:S:1:pos:R:3:forces:R:3 generation=8 composition=W6 config_type=C15_aa source_path=V-Cr-Ti-W-Zr/Fixed_Engrads/vcrtiwzr_fin_engrads/job_gen_6-2024-12-23/W/W6_C15_idx_3025 date_processed=2025-02-12T16:53:55.621884 structure_index=3025 structure_id=21675 energy=-74.88668518066406 stress="0.0372559861535086 0.0003797396567278633 0.009271075240495733 0.0003797396567278633 0.03830418519610944 0.007482539592928256 0.009271075240495733 0.007482539592928256 0.03428267476064772" calculation_info="_JSON {\"calculation_id\": 21674, \"calculator\": \"vasp\", \"calculation_source_path\": \"\", \"error\": null, \"status\": \"completed\", \"gpu_count\": null, \"parameters\": {}, \"date_started\": null, \"gpu_memory_mb\": null, \"model_version\": null, \"date_completed\": null, \"runtime_seconds\": null}" parent_id=21675 step=5 variance=0.1728956252336502 loss=0.1728956252336502 pbc="T T T"
W        0.98361000       0.97534282       0.98113690       0.02136466       0.04919894       0.02726642
W        2.86278506       0.98349328       2.84666398      -0.06981624       0.11746105      -0.07016711
W        2.84923708       2.84895065       1.00263426       0.03143024      -0.09081286       0.01912947
W        0.99919130       2.86330255       2.83852112       0.00358296      -0.08638905       0.02830697
W        3.80282681       3.79114583       3.79307764       0.00581177       0.01507052       0.00505163
W        5.68683802       5.67145420       5.67111830       0.00762659      -0.00452857      -0.00958740
6
Lattice="0.032098714 3.759971569 3.724462847 3.75314214 0.011183131 3.731735872 3.741356797 3.731346267 0.05095429" Properties=species:S:1:pos:R:3:forces:R:3 generation=8 composition=W6 config_type=C15_aa source_path=V-Cr-Ti-W-Zr/Fixed_Engrads/vcrtiwzr_fin_engrads/job_gen_6-2024-12-23/W/W6_C15_idx_3025 date_processed=2025-02-12T16:53:55.621884 structure_index=3025 structure_id=21675 energy=-74.88616790771485 stress="0.0372559861535086 0.0003797396567278633 0.009271075240495733 0.0003797396567278633 0.03830418519610944 0.007482539592928256 0.009271075240495733 0.007482539592928256 0.03428267476064772" calculation_info="_JSON {\"calculation_id\": 21674, \"calculator\": \"vasp\", \"calculation_source_path\": \"\", \"error\": null, \"status\": \"completed\", \"gpu_count\": null, \"parameters\": {}, \"date_started\": null, \"gpu_memory_mb\": null, \"model_version\": null, \"date_completed\": null, \"runtime_seconds\": null}" parent_id=21675 step=6 variance=0.07536006718873978 loss=0.07536006718873978 pbc="T T T"
W        0.98908179       0.97955699       0.98626425       0.02428499       0.05577518       0.02944921
W        2.86878393       0.98787565       2.85148166      -0.09093571       0.15128611      -0.08791903
W        2.85340177       2.85468837       1.00661025       0.03437748      -0.11237422       0.03014401
W        1.00355488       2.86931140       2.84261791       0.02186699      -0.11462432       0.02597741
W        3.80678893       3.79728418       3.80003126       0.01619225       0.00175210      -0.02697977
W        5.69299879       5.67443367       5.67168692      -0.00578604       0.01818517       0.02932834
6
Lattice="0.032098714 3.759971569 3.724462847 3.75314214 0.011183131 3.731735872 3.741356797 3.731346267 0.05095429" Properties=species:S:1:pos:R:3:forces:R:3 generation=8 composition=W6 config_type=C15_aa source_path=V-Cr-Ti-W-Zr/Fixed_Engrads/vcrtiwzr_fin_engrads/job_gen_6-2024-12-23/W/W6_C15_idx_3025 date_processed=2025-02-12T16:53:55.621884 structure_index=3025 structure_id=21675 energy=-74.88553619384766 stress="0.0372559861535086 0.0003797396567278633 0.009271075240495733 0.0003797396567278633 0.03830418519610944 0.007482539592928256 0.009271075240495733 0.007482539592928256 0.03428267476064772" calculation_info="_JSON {\"calculation_id\": 21674, \"calculator\": \"vasp\", \"calculation_source_path\": \"\", \"error\": null, \"status\": \"completed\", \"gpu_count\": null, \"parameters\": {}, \"date_started\": null, \"gpu_memory_mb\": null, \"model_version\": null, \"date_completed\": null, \"runtime_seconds\": null}" parent_id=21675 step=7 variance=0.0399344228208065 loss=0.0399344228208065 pbc="T T T"
W        0.99387141       0.98321700       0.99081376       0.02474216       0.06103437       0.02947606
W        2.87395411       0.99158469       2.85567364      -0.10848769       0.18413882      -0.10123072
W        2.85703530       2.85959274       1.01004839       0.03630563      -0.12883367       0.04310754
W        1.00718560       2.87448018       2.84619844       0.04195692      -0.13786271       0.02387113
W        3.81058961       3.80278514       3.80495492       0.02124663      -0.01130957      -0.04177105
W        5.69817034       5.67748993       5.67374313      -0.01576341       0.03283280       0.04654700
6
Lattice="0.032098714 3.759971569 3.724462847 3.75314214 0.011183131 3.731735872 3.741356797 3.731346267 0.05095429" Properties=species:S:1:pos:R:3:forces:R:3 generation=8 composition=W6 config_type=C15_aa source_path=V-Cr-Ti-W-Zr/Fixed_Engrads/vcrtiwzr_fin_engrads/job_gen_6-2024-12-23/W/W6_C15_idx_3025 date_processed=2025-02-12T16:53:55.621884 structure_index=3025 structure_id=21675 energy=-74.88489837646485 stress="0.0372559861535086 0.0003797396567278633 0.009271075240495733 0.0003797396567278633 0.03830418519610944 0.007482539592928256 0.009271075240495733 0.007482539592928256 0.03428267476064772" calculation_info="_JSON {\"calculation_id\": 21674, \"calculator\": \"vasp\", \"calculation_source_path\": \"\", \"error\": null, \"status\": \"completed\", \"gpu_count\": null, \"parameters\": {}, \"date_started\": null, \"gpu_memory_mb\": null, \"model_version\": null, \"date_completed\": null, \"runtime_seconds\": null}" parent_id=21675 step=8 variance=0.029074130579829216 loss=0.029074130579829216 pbc="T T T"
W        0.99810700       0.98644151       0.99488430       0.02433504       0.06527070       0.02806609
W        2.87847463       0.99482418       2.85938167      -0.12304296       0.21396585      -0.11234055
W        2.86023585       2.86389405       1.01308132       0.03789376      -0.14276659       0.05535752
W        1.01033027       2.87900335       2.84935769       0.06067955      -0.15727417       0.02217548
W        3.81407247       3.80756245       3.80883945       0.02414130      -0.02195513      -0.04955112
W        5.70266086       5.68044744       5.67606437      -0.02400665       0.04275943       0.05629250
6
Lattice="0.032098714 3.759971569 3.724462847 3.75314214 0.011183131 3.731735872 3.741356797 3.731346267 0.05095429" Properties=species:S:1:pos:R:3:forces:R:3 generation=8 composition=W6 config_type=C15_aa source_path=V-Cr-Ti-W-Zr/Fixed_Engrads/vcrtiwzr_fin_engrads/job_gen_6-2024-12-23/W/W6_C15_idx_3025 date_processed=2025-02-12T16:53:55.621884 structure_index=3025 structure_id=21675 energy=-74.88429412841796 stress="0.0372559861535086 0.0003797396567278633 0.009271075240495733 0.0003797396567278633 0.03830418519610944 0.007482539592928256 0.009271075240495733 0.007482539592928256 0.03428267476064772" calculation_info="_JSON {\"calculation_id\": 21674, \"calculator\": \"vasp\", \"calculation_source_path\": \"\", \"error\": null, \"status\": \"completed\", \"gpu_count\": null, \"parameters\": {}, \"date_started\": null, \"gpu_memory_mb\": null, \"model_version\": null, \"date_completed\": null, \"runtime_seconds\": null}" parent_id=21675 step=9 variance=0.024508975446224213 loss=0.024508975446224213 pbc="T T T"
W        1.00190473       0.98930887       0.99855248       0.02296726       0.06844319       0.02543672
W        2.88246142       0.99769057       2.86268033      -0.13497522       0.24063973      -0.12156384
W        2.86307447       2.86770362       1.01578130       0.03951758      -0.15466098       0.06641324
W        1.01309710       2.88299948       2.85216275       0.07756487      -0.17366858       0.02092859
W        3.81723866       3.81169912       3.81200530       0.02586646      -0.03025796      -0.05322823
W        5.70660837       5.68325101       5.67839769      -0.03094089       0.04950466       0.06201354
6
Lattice="0.032098714 3.759971569 3.724462847 3.75314214 0.011183131 3.731735872 3.741356797 3.731346267 0.05095429" Properties=species:S:1:pos:R:3:forces:R:3 generation=8 composition=W6 config_type=C15_aa source_path=V-Cr-Ti-W-Zr/Fixed_Engrads/vcrtiwzr_fin_engrads/job_gen_6-2024-12-23/W/W6_C15_idx_3025 date_processed=2025-02-12T16:53:55.621884 structure_index=3025 structure_id=21675 energy=-74.883740234375 stress="0.0372559861535086 0.0003797396567278633 0.009271075240495733 0.0003797396567278633 0.03830418519610944 0.007482539592928256 0.009271075240495733 0.007482539592928256 0.03428267476064772" calculation_info="_JSON {\"calculation_id\": 21674, \"calculator\": \"vasp\", \"calculation_source_path\": \"\", \"error\": null, \"status\": \"completed\", \"gpu_count\": null, \"parameters\": {}, \"date_started\": null, \"gpu_memory_mb\": null, \"model_version\": null, \"date_completed\": null, \"runtime_seconds\": null}" parent_id=21675 step=10 variance=0.02263733558356762 loss=0.02263733558356762 pbc="T T T"
W        1.00535723       0.99187805       1.00188314       0.02032267       0.07038413       0.02154922
W        2.88599696       1.00024583       2.86562508      -0.14450511       0.26440805      -0.12893014
W        2.86560499       2.87109444       1.01819795       0.04143495      -0.16461246       0.07625457
W        1.01555092       2.88655118       2.85466477       0.09268045      -0.18751034       0.02017955
W        3.82011591       3.81527888       3.81462195       0.02686774      -0.03649747      -0.05414606
W        5.71010253       5.68589250       5.68066665      -0.03680050       0.05382798       0.06509269
6
Lattice="0.032098714 3.759971569 3.724462847 3.75314214 0.011183131 3.731735872 3.741356797 3.731346267 0.05095429" Properties=species:S:1:pos:R:3:forces:R:3 generation=8 composition=W6 config_type=C15_aa source_path=V-Cr-Ti-W-Zr/Fixed_Engrads/vcrtiwzr_fin_engrads/job_gen_6-2024-12-23/W/W6_C15_idx_3025 date_processed=2025-02-12T16:53:55.621884 structure_index=3025 structure_id=21675 energy=-74.88323974609375 stress="0.0372559861535086 0.0003797396567278633 0.009271075240495733 0.0003797396567278633 0.03830418519610944 0.007482539592928256 0.009271075240495733 0.007482539592928256 0.03428267476064772" calculation_info="_JSON {\"calculation_id\": 21674, \"calculator\": \"vasp\", \"calculation_source_path\": \"\", \"error\": null, \"status\": \"completed\", \"gpu_count\": null, \"parameters\": {}, \"date_started\": null, \"gpu_memory_mb\": null, \"model_version\": null, \"date_completed\": null, \"runtime_seconds\": null}" parent_id=21675 step=11 variance=0.022426918148994446 loss=0.022426918148994446 pbc="T T T"
W        1.00854484       0.99419662       1.00493301       0.01595071       0.07088453       0.01619442
W        2.88914334       1.00253464       2.86825848      -0.15167108       0.28553265      -0.13433412
W        2.86786904       2.87412030       1.02036967       0.04386045      -0.17259336       0.08495502
W        1.01773595       2.88971905       2.85690352       0.10618988      -0.19906779       0.01997192
W        3.82273558       3.81836890       3.81679212       0.02737775      -0.04093210      -0.05301628
W        5.71320878       5.68837815       5.68284507      -0.04170776       0.05617614       0.06622897
6
Lattice="0.032098714 3.759971569 3.724462847 3.75314214 0.011183131 3.731735872 3.741356797 3.731346267 0.05095429" Properties=species:S:1:pos:R:3:forces:R:3 generation=8 composition=W6 config_type=C15_aa source_path=V-Cr-Ti-W-Zr/Fixed_Engrads/vcrtiwzr_fin_engrads/job_gen_6-2024-12-23/W/W6_C15_idx_3025 date_processed=2025-02-12T16:53:55.621884 structure_index=3025 structure_id=21675 energy=-74.88280029296875 stress="0.0372559861535086 0.0003797396567278633 0.009271075240495733 0.0003797396567278633 0.03830418519610944 0.007482539592928256 0.009271075240495733 0.007482539592928256 0.03428267476064772" calculation_info="_JSON {\"calculation_id\": 21674, \"calculator\": \"vasp\", \"calculation_source_path\": \"\", \"error\": null, \"status\": \"completed\", \"gpu_count\": null, \"parameters\": {}, \"date_started\": null, \"gpu_memory_mb\": null, \"model_version\": null, \"date_completed\": null, \"runtime_seconds\": null}" parent_id=21675 step=12 variance=0.02367095835506916 loss=0.02367095835506916 pbc="T T T"
W        1.01153897       0.99630691       1.00775336       0.00928226       0.06954005       0.00903443
W        2.89194903       1.00459085       2.87061629      -0.15647353       0.30429068      -0.13761564
W        2.86989971       2.87681835       1.02232527       0.04706647      -0.17843604       0.09264685
W        1.01968042       2.89254908       2.85890995       0.11833785      -0.20850174       0.02039610
W        3.82512738       3.82101749       3.81858575       0.02753697      -0.04372757      -0.05029066
W        5.71597742       5.69071709       5.68492764      -0.04574999       0.05683465       0.06582894
6
Lattice="0.032098714 3.759971569 3.724462847 3.75314214 0.011183131 3.731735872 3.741356797 3.731346267 0.05095429" Properties=species:S:1:pos:R:3:forces:R:3 generation=8 composition=W6 config_type=C15_aa source_path=V-Cr-Ti-W-Zr/Fixed_Engrads/vcrtiwzr_fin_engrads/job_gen_6-2024-12-23/W/W6_C15_idx_3025 date_processed=2025-02-12T16:53:55.621884 structure_index=3025 structure_id=21675 energy=-74.88241424560547 stress="0.0372559861535086 0.0003797396567278633 0.009271075240495733 0.0003797396567278633 0.03830418519610944 0.007482539592928256 0.009271075240495733 0.007482539592928256 0.03428267476064772" calculation_info="_JSON {\"calculation_id\": 21674, \"calculator\": \"vasp\", \"calculation_source_path\": \"\", \"error\": null, \"status\": \"completed\", \"gpu_count\": null, \"parameters\": {}, \"date_started\": null, \"gpu_memory_mb\": null, \"model_version\": null, \"date_completed\": null, \"runtime_seconds\": null}" parent_id=21675 step=13 variance=0.026453888043761253 loss=0.026453888043761253 pbc="T T T"
W        1.01440328       0.99824961       1.01038932      -0.00019674       0.06581727      -0.00025537
W        2.89445715       1.00644232       2.87273483      -0.15895131       0.32093585      -0.13868548
W        2.87172315       2.87921385       1.02408647       0.05132226      -0.18192863       0.09952994
W        1.02140224       2.89507556       2.86070800       0.12944186      -0.21587844       0.02158085
W        3.82732130       3.82325622       3.82005211       0.02738539      -0.04494653      -0.04623202
W        5.71844899       5.69291704       5.68692299      -0.04900149       0.05600054       0.06406204
6
Lattice="0.032098714 3.759971569 3.724462847 3.75314214 0.011183131 3.731735872 3.741356797 3.731346267 0.05095429" Properties=species:S:1:pos:R:3:forces:R:3 generation=8 composition=W6 config_type=C15_aa source_path=V-Cr-Ti-W-Zr/Fixed_Engrads/vcrtiwzr_fin_engrads/job_gen_6-2024-12-23/W/W6_C15_idx_3025 date_processed=2025-02-12T16:53:55.621884 structure_index=3025 structure_id=21675 energy=-74.88207092285157 stress="0.0372559861535086 0.0003797396567278633 0.009271075240495733 0.0003797396567278633 0.03830418519610944 0.007482539592928256 0.009271075240495733 0.007482539592928256 0.03428267476064772" calculation_info="_JSON {\"calculation_id\": 21674, \"calculator\": \"vasp\", \"calculation_source_path\": \"\", \"error\": null, \"status\": \"completed\", \"gpu_count\": null, \"parameters\": {}, \"date_started\": null, \"gpu_memory_mb\": null, \"model_version\": null, \"date_completed\": null, \"runtime_seconds\": null}" parent_id=21675 step=14 variance=0.03022313117980957 loss=0.03022313117980957 pbc="T T T"
W        1.01714500       1.00006410       1.01286021      -0.01194040       0.05939626      -0.01125366
W        2.89671644       1.00811169       2.87466913      -0.15989757       0.33587947      -0.13832209
W        2.87336061       2.88132767       1.02566906       0.05663170      -0.18336944       0.10598882
W        1.02290549       2.89732588       2.86231634       0.13998675      -0.22149205       0.02358047
W        3.82934658       3.82509199       3.82122738       0.02681805      -0.04440956      -0.04099219
W        5.72065691       5.69497398       5.68884842      -0.05159860       0.05399518       0.06099863
6
Lattice="0.032098714 3.759971569 3.724462847 3.75314214 0.011183131 3.731735872 3.741356797 3.731346267 0.05095429" Properties=species:S:1:pos:R:3:forces:R:3 generation=8 composition=W6 config_type=C15_aa source_path=V-Cr-Ti-W-Zr/Fixed_Engrads/vcrtiwzr_fin_engrads/job_gen_6-2024-12-23/W/W6_C15_idx_3025 date_processed=2025-02-12T16:53:55.621884 structure_index=3025 structure_id=21675 energy=-74.88174438476562 stress="0.0372559861535086 0.0003797396567278633 0.009271075240495733 0.0003797396567278633 0.03830418519610944 0.007482539592928256 0.009271075240495733 0.007482539592928256 0.03428267476064772" calculation_info="_JSON {\"calculation_id\": 21674, \"calculator\": \"vasp\", \"calculation_source_path\": \"\", \"error\": null, \"status\": \"completed\", \"gpu_count\": null, \"parameters\": {}, \"date_started\": null, \"gpu_memory_mb\": null, \"model_version\": null, \"date_completed\": null, \"runtime_seconds\": null}" parent_id=21675 step=15 variance=0.03401560336351395 loss=0.03401560336351395 pbc="T T T"
W        1.01961774       1.00176855       1.01511804      -0.02200715       0.05161124      -0.02114810
W        2.89880034       1.00962238       2.87651913      -0.16207644       0.34999591      -0.13969302
W        2.87483295       2.88320954       1.02708790       0.06184175      -0.18499127       0.11273650
W        1.02419482       2.89934012       2.86375747       0.15065724      -0.22655062       0.02588918
W        3.83123675       3.82651208       3.82213607       0.02545759      -0.04146923      -0.03449231
W        5.72262850       5.69688165       5.69072949      -0.05387286       0.05140387       0.05670779
6
Lattice="0.032098714 3.759971569 3.724462847 3.75314214 0.011183131 3.731735872 3.741356797 3.731346267 0.05095429" Properties=species:S:1:pos:R:3:forces:R:3 generation=8 composition=W6 config_type=C15_aa source_path=V-Cr-Ti-W-Zr/Fixed_Engrads/vcrtiwzr_fin_engrads/job_gen_6-2024-12-23/W/W6_C15_idx_3025 date_processed=2025-02-12T16:53:55.621884 structure_index=3025 structure_id=21675 energy=-74.881396484375 stress="0.0372559861535086 0.0003797396567278633 0.009271075240495733 0.0003797396567278633 0.03830418519610944 0.007482539592928256 0.009271075240495733 0.007482539592928256 0.03428267476064772" calculation_info="_JSON {\"calculation_id\": 21674, \"calculator\": \"vasp\", \"calculation_source_path\": \"\", \"error\": null, \"status\": \"completed\", \"gpu_count\": null, \"parameters\": {}, \"date_started\": null, \"gpu_memory_mb\": null, \"model_version\": null, \"date_completed\": null, \"runtime_seconds\": null}" parent_id=21675 step=16 variance=0.041184987872838974 loss=0.041184987872838974 pbc="T T T"
W        1.02158376       1.00334967       1.01708250      -0.02449990       0.04540234      -0.02596801
W        2.90077610       1.01100108       2.87838741      -0.16884664       0.36425361      -0.14699659
W        2.87616290       2.88495393       1.02836520       0.06488574      -0.19042209       0.12041187
W        1.02529137       2.90117511       2.86506134       0.16187203      -0.23274055       0.02753509
W        3.83303115       3.82749655       3.82277708       0.02274403      -0.03521939      -0.02629078
W        5.72438404       5.69866136       5.69259417      -0.05615520       0.04872588       0.05130843
6