8
Lattice="5.089549697 -0.054480689 -0.00841468 0.050501057 5.164379191 0.02127972 0.007757749 -0.03336293 5.022357902" Properties=species:S:1:pos:R:3:forces:R:3 generation=6 composition=W8 config_type=A15 source_path=V-Cr-Ti-W-Zr/Fixed_Engrads/vcrtiwzr_fin_engrads/job_gen_6-2024-12-23/W/W8_A15_idx_2941 date_processed=2025-02-12T16:54:01.279568 structure_index=2941 structure_id=21789 energy=-102.82394 stress="0.008427560248169114 -0.00015170612081371847 -9.982045545025095e-05 -0.00015170612081371847 0.04676270332954294 -0.0011153015072132054 -9.982045545025095e-05 -0.0011153015072132054 -0.028482278050727127" calculation_info="_JSON {\"calculation_id\": 21788, \"calculator\": \"vasp\", \"calculation_source_path\": \"\", \"error\": null, \"status\": \"completed\", \"gpu_count\": null, \"parameters\": {}, \"date_started\": null, \"gpu_memory_mb\": null, \"model_version\": null, \"date_completed\": null, \"runtime_seconds\": null}" pbc="T T T"
W        0.00000000       0.00000000       0.00000000       0.00000000       0.00000000       0.00000000
W        2.57390000       2.53827000       2.51761000       0.00000000       0.00000000       0.00000000
W        1.30540000       2.53521000       5.03089000      -0.00998100      -0.00083900       0.00005800
W        3.85017000       2.50797000       5.02669000       0.00998100       0.00083900      -0.00005800
W        0.01650000       1.27441000       2.51650000       0.00115100       0.00584600      -0.00291000
W        0.04175000       3.85660000       2.52714000      -0.00115100      -0.00584600       0.00291000
W        2.59722000       5.12880000       1.27266000       0.00000200       0.00126600       0.00907300
W        2.55059000      -0.05226000       3.76256000      -0.00000200      -0.00126600      -0.00907300
8
Lattice="5.089549697 -0.054480689 -0.00841468 0.050501057 5.164379191 0.02127972 0.007757749 -0.03336293 5.022357902" Properties=species:S:1:pos:R:3:forces:R:3 generation=8 composition=W8 config_type=A15_aa source_path=V-Cr-Ti-W-Zr/Fixed_Engrads/vcrtiwzr_fin_engrads/job_gen_6-2024-12-23/W/W8_A15_idx_2941 date_processed=2025-02-12T16:54:01.279568 structure_index=2941 structure_id=21789 energy=-102.67974243164062 stress="0.008427560248169114 -0.00015170612081371847 -9.982045545025095e-05 -0.00015170612081371847 0.04676270332954294 -0.0011153015072132054 -9.982045545025095e-05 -0.0011153015072132054 -0.028482278050727127" calculation_info="_JSON {\"calculation_id\": 21788, \"calculator\": \"vasp\", \"calculation_source_path\": \"\", \"error\": null, \"status\": \"completed\", \"gpu_count\": null, \"parameters\": {}, \"date_started\": null, \"gpu_memory_mb\": null, \"model_version\": null, \"date_completed\": null, \"runtime_seconds\": null}" parent_id=21789 step=0 variance=0.428077757358551 loss=0.428077757358551 pbc="T T T"
W        0.00000000       0.00000000       0.00000000       0.00000554       0.00004294       0.00001136
W        2.57390000       2.53827000       2.51761000       0.00001500      -0.00001346       0.00001163
W        1.30540000       2.53521000       5.03089000      -0.01787695      -0.00240905       0.00018902
W        3.85017000       2.50797000       5.02669000       0.01784023       0.00232905      -0.00018398
W        0.01650000       1.27441000       2.51650000       0.00274040       0.00696826      -0.00682496
W        0.04175000       3.85660000       2.52714000      -0.00265255      -0.00691243       0.00678176
W        2.59722000       5.12880000       1.27266000      -0.00013312       0.00698188       0.00951895
W        2.55059000      -0.05226000       3.76256000       0.00006144      -0.00698724      -0.00950376
8
Lattice="5.089549697 -0.054480689 -0.00841468 0.050501057 5.164379191 0.02127972 0.007757749 -0.03336293 5.022357902" Properties=species:S:1:pos:R:3:forces:R:3 generation=8 composition=W8 config_type=A15_aa source_path=V-Cr-Ti-W-Zr/Fixed_Engrads/vcrtiwzr_fin_engrads/job_gen_6-2024-12-23/W/W8_A15_idx_2941 date_processed=2025-02-12T16:54:01.279568 structure_index=2941 structure_id=21789 energy=-102.66314392089843 stress="0.008427560248169114 -0.00015170612081371847 -9.982045545025095e-05 -0.00015170612081371847 0.04676270332954294 -0.0011153015072132054 -9.982045545025095e-05 -0.0011153015072132054 -0.028482278050727127" calculation_info="_JSON {\"calculation_id\": 21788, \"calculator\": \"vasp\", \"calculation_source_path\": \"\", \"error\": null, \"status\": \"completed\", \"gpu_count\": null, \"parameters\": {}, \"date_started\": null, \"gpu_memory_mb\": null, \"model_version\": null, \"date_completed\": null, \"runtime_seconds\": null}" parent_id=21789 step=1 variance=0.004809747450053692 loss=0.004809747450053692 pbc="T T T"
W       -0.01000000      -0.01000000      -0.01000000       0.00947006       0.22091714       0.12743488
W        2.56390000       2.52827000       2.50761000       0.21773963       0.11767658       0.24949388
W        1.29540000       2.54521000       5.04089000       0.01635574      -0.20198734      -0.22294426
W        3.84017000       2.51797000       5.03669000       0.05394037      -0.19791862      -0.22046790
W        0.02650000       1.26441000       2.50650000      -0.26797327       0.06189752       0.10878434
W        0.05175000       3.84660000       2.53714000      -0.26930314       0.04827407      -0.14276609
W        2.58722000       5.13880000       1.26266000       0.11808509      -0.14608300       0.06087584
W        2.54059000      -0.06226000       3.75256000       0.12168548       0.09722368       0.03958923
8
Lattice="5.089549697 -0.054480689 -0.00841468 0.050501057 5.164379191 0.02127972 0.007757749 -0.03336293 5.022357902" Properties=species:S:1:pos:R:3:forces:R:3 generation=8 composition=W8 config_type=A15_aa source_path=V-Cr-Ti-W-Zr/Fixed_Engrads/vcrtiwzr_fin_engrads/job_gen_6-2024-12-23/W/W8_A15_idx_2941 date_processed=2025-02-12T16:54:01.279568 structure_index=2941 structure_id=21789 energy=-102.63340454101562 stress="0.008427560248169114 -0.00015170612081371847 -9.982045545025095e-05 -0.00015170612081371847 0.04676270332954294 -0.0011153015072132054 -9.982045545025095e-05 -0.0011153015072132054 -0.028482278050727127" calculation_info="_JSON {\"calculation_id\": 21788, \"calculator\": \"vasp\", \"calculation_source_path\": \"\", \"error\": null, \"status\": \"completed\", \"gpu_count\": null, \"parameters\": {}, \"date_started\": null, \"gpu_memory_mb\": null, \"model_version\": null, \"date_completed\": null, \"runtime_seconds\": null}" parent_id=21789 step=2 variance=0.002245378913357854 loss=0.002245378913357854 pbc="T T T"
W       -0.01673024      -0.01668737      -0.01669858       0.01671808       0.36874002       0.21284468
W        2.55720104       2.52155652       2.50092218       0.36352780       0.19682869       0.41570228
W        1.28869068       2.55190956       5.04754515       0.03842103      -0.33114299      -0.36916661
W        3.83347415       2.52466944       5.04335167       0.07891993      -0.32826680      -0.36194625
W        0.03319340       1.25771496       2.49981210      -0.45028114       0.09606649       0.18063661
W        0.05843578       3.83989572       2.54384052      -0.44412231       0.08481820      -0.24292974
W        2.58054876       5.14547268       1.25597522       0.19396178      -0.24841580       0.09273706
W        2.53396452      -0.06894189       3.74586172       0.20285492       0.16137221       0.07212215
8
Lattice="5.089549697 -0.054480689 -0.00841468 0.050501057 5.164379191 0.02127972 0.007757749 -0.03336293 5.022357902" Properties=species:S:1:pos:R:3:forces:R:3 generation=8 composition=W8 config_type=A15_aa source_path=V-Cr-Ti-W-Zr/Fixed_Engrads/vcrtiwzr_fin_engrads/job_gen_6-2024-12-23/W/W8_A15_idx_2941 date_processed=2025-02-12T16:54:01.279568 structure_index=2941 structure_id=21789 energy=-102.6003631591797 stress="0.008427560248169114 -0.00015170612081371847 -9.982045545025095e-05 -0.00015170612081371847 0.04676270332954294 -0.0011153015072132054 -9.982045545025095e-05 -0.0011153015072132054 -0.028482278050727127" calculation_info="_JSON {\"calculation_id\": 21788, \"calculator\": \"vasp\", \"calculation_source_path\": \"\", \"error\": null, \"status\": \"completed\", \"gpu_count\": null, \"parameters\": {}, \"date_started\": null, \"gpu_memory_mb\": null, \"model_version\": null, \"date_completed\": null, \"runtime_seconds\": null}" parent_id=21789 step=3 variance=0.0016584566328674555 loss=0.0016584566328674555 pbc="T T T"
W       -0.02194018      -0.02185400      -0.02187519       0.02239321       0.48291856       0.27881694
W        2.55202327       2.51636269       2.49575446       0.47625104       0.25808975       0.54389971
W        1.28350159       2.55708814       5.05268261       0.05486317      -0.42820516      -0.48045763
W        3.82829937       2.52984791       5.04849490       0.09864350      -0.42666188      -0.46799365
W        0.03836600       1.25254065       2.49464490      -0.59142125       0.12091599       0.23291068
W        0.06360103       3.83471166       2.54902001      -0.57689476       0.11274518      -0.32014519
W        2.57539799       5.15062305       1.25081523       0.25065267      -0.32744756       0.11588101
W        2.52886072      -0.07410199       3.74068176       0.26551244       0.20764513       0.09708810
8
Lattice="5.089549697 -0.054480689 -0.00841468 0.050501057 5.164379191 0.02127972 0.007757749 -0.03336293 5.022357902" Properties=species:S:1:pos:R:3:forces:R:3 generation=8 composition=W8 config_type=A15_aa source_path=V-Cr-Ti-W-Zr/Fixed_Engrads/vcrtiwzr_fin_engrads/job_gen_6-2024-12-23/W/W8_A15_idx_2941 date_processed=2025-02-12T16:54:01.279568 structure_index=2941 structure_id=21789 energy=-102.56686096191406 stress="0.008427560248169114 -0.00015170612081371847 -9.982045545025095e-05 -0.00015170612081371847 0.04676270332954294 -0.0011153015072132054 -9.982045545025095e-05 -0.0011153015072132054 -0.028482278050727127" calculation_info="_JSON {\"calculation_id\": 21788, \"calculator\": \"vasp\", \"calculation_source_path\": \"\", \"error\": null, \"status\": \"completed\", \"gpu_count\": null, \"parameters\": {}, \"date_started\": null, \"gpu_memory_mb\": null, \"model_version\": null, \"date_completed\": null, \"runtime_seconds\": null}" parent_id=21789 step=4 variance=0.0014275669818744063 loss=0.0014275669818744063 pbc="T T T"
W       -0.02621165      -0.02608518      -0.02611469       0.02701822       0.57636303       0.33279207
W        2.54778228       2.51210538       2.49152190       0.56860411       0.30830950       0.64876860
W        1.27924918       2.56133005       5.05688915       0.06792367      -0.50580323      -0.57044953
W        3.82406115       2.53408971       5.05270651       0.11502391      -0.50560790      -0.55266666
W        0.04260243       1.24830241       2.49041331      -0.70698655       0.14018826       0.27348819
W        0.06783084       3.83046431       2.55326272      -0.68396676       0.13538289      -0.38319319
W        2.57118147       5.15483736       1.24659275       0.29569522      -0.39213464       0.13387181
W        2.52468893      -0.07832609       3.73643682       0.31668824       0.24330199       0.11738875
8
Lattice="5.089549697 -0.054480689 -0.00841468 0.050501057 5.164379191 0.02127972 0.007757749 -0.03336293 5.022357902" Properties=species:S:1:pos:R:3:forces:R:3 generation=8 composition=W8 config_type=A15_aa source_path=V-Cr-Ti-W-Zr/Fixed_Engrads/vcrtiwzr_fin_engrads/job_gen_6-2024-12-23/W/W8_A15_idx_2941 date_processed=2025-02-12T16:54:01.279568 structure_index=2941 structure_id=21789 energy=-102.53406982421875 stress="0.008427560248169114 -0.00015170612081371847 -9.982045545025095e-05 -0.00015170612081371847 0.04676270332954294 -0.0011153015072132054 -9.982045545025095e-05 -0.0011153015072132054 -0.028482278050727127" calculation_info="_JSON {\"calculation_id\": 21788, \"calculator\": \"vasp\", \"calculation_source_path\": \"\", \"error\": null, \"status\": \"completed\", \"gpu_count\": null, \"parameters\": {}, \"date_started\": null, \"gpu_memory_mb\": null, \"model_version\": null, \"date_completed\": null, \"runtime_seconds\": null}" parent_id=21789 step=5 variance=0.0013147719437256455 loss=0.0013147719437256455 pbc="T T T"
W       -0.02982460      -0.02966092      -0.02969730       0.03086945       0.65527642       0.37834701
W        2.54419790       2.50850490       2.48794459       0.64669168       0.35076597       0.73731530
W        1.27565359       2.56491540       5.06044404       0.07867001      -0.56999397      -0.64565575
W        3.82047924       2.53767493       5.05626595       0.12901817      -0.57110631      -0.62265903
W        0.04618276       1.24472003       2.48683731      -0.80453700       0.15569375       0.30615512
W        0.07140535       3.82687378       2.55684874      -0.77321529       0.15433806      -0.43632665
W        2.56761930       5.15839650       1.24302629       0.33272734      -0.44679236       0.14838177
W        2.52116893      -0.08189445       3.73284743       0.35977584       0.27181837       0.13444212
8
Lattice="5.089549697 -0.054480689 -0.00841468 0.050501057 5.164379191 0.02127972 0.007757749 -0.03336293 5.022357902" Properties=species:S:1:pos:R:3:forces:R:3 generation=8 composition=W8 config_type=A15_aa source_path=V-Cr-Ti-W-Zr/Fixed_Engrads/vcrtiwzr_fin_engrads/job_gen_6-2024-12-23/W/W8_A15_idx_2941 date_processed=2025-02-12T16:54:01.279568 structure_index=2941 structure_id=21789 energy=-102.50256958007813 stress="0.008427560248169114 -0.00015170612081371847 -9.982045545025095e-05 -0.00015170612081371847 0.04676270332954294 -0.0011153015072132054 -9.982045545025095e-05 -0.0011153015072132054 -0.028482278050727127" calculation_info="_JSON {\"calculation_id\": 21788, \"calculator\": \"vasp\", \"calculation_source_path\": \"\", \"error\": null, \"status\": \"completed\", \"gpu_count\": null, \"parameters\": {}, \"date_started\": null, \"gpu_memory_mb\": null, \"model_version\": null, \"date_completed\": null, \"runtime_seconds\": null}" parent_id=21789 step=6 variance=0.0012532948749139905 loss=0.0012532948749139905 pbc="T T T"
W       -0.03294038      -0.03274230      -0.03278440       0.03414488       0.72323531       0.41756034
W        2.54110891       2.50539998       2.48486147       0.71401823       0.38735476       0.81357747
W        1.27255359       2.56800549       5.06350797       0.08771725      -0.62426740      -0.70982540
W        3.81739245       2.54076490       5.05933409       0.14117399      -0.62662923      -0.68182880
W        0.04926828       1.24163233       2.48375582      -0.88845366       0.16844684       0.33308306
W        0.07448577       3.82377887       2.55993946      -0.84918004       0.17055279      -0.48199290
W        2.56455040       5.16146203       1.23995422       0.36384338      -0.49387687       0.16036890
W        2.51813989      -0.08496834       3.72975278       0.39673600       0.29518381       0.14905730
8
Lattice="5.089549697 -0.054480689 -0.00841468 0.050501057 5.164379191 0.02127972 0.007757749 -0.03336293 5.022357902" Properties=species:S:1:pos:R:3:forces:R:3 generation=8 composition=W8 config_type=A15_aa source_path=V-Cr-Ti-W-Zr/Fixed_Engrads/vcrtiwzr_fin_engrads/job_gen_6-2024-12-23/W/W8_A15_idx_2941 date_processed=2025-02-12T16:54:01.279568 structure_index=2941 structure_id=21789 energy=-102.4726318359375 stress="0.008427560248169114 -0.00015170612081371847 -9.982045545025095e-05 -0.00015170612081371847 0.04676270332954294 -0.0011153015072132054 -9.982045545025095e-05 -0.0011153015072132054 -0.028482278050727127" calculation_info="_JSON {\"calculation_id\": 21788, \"calculator\": \"vasp\", \"calculation_source_path\": \"\", \"error\": null, \"status\": \"completed\", \"gpu_count\": null, \"parameters\": {}, \"date_started\": null, \"gpu_memory_mb\": null, \"model_version\": null, \"date_completed\": null, \"runtime_seconds\": null}" parent_id=21789 step=7 variance=0.0012176571181043983 loss=0.0012176571181043983 pbc="T T T"
W       -0.03566305      -0.03543296      -0.03547985       0.03696989       0.78254724       0.45175424
W        2.53841152       2.50268687       2.48216887       0.77282828       0.41930157       0.88013297
W        1.26984534       2.57070407       5.06618415       0.09546018      -0.67085326      -0.76536781
W        3.81469695       2.54346335       5.06201402       0.15185137      -0.67439997      -0.73261726
W        0.05196268       1.23893560       2.48106508      -0.96158135       0.17912218       0.35565543
W        0.07717559       3.82107569       2.56263858      -0.91477412       0.18461628      -0.52177042
W        2.56187132       5.16413731       1.23727212       0.39039460      -0.53499299       0.17045760
W        2.51549854      -0.08765144       3.72704924       0.42885113       0.31465900       0.16175523
8
Lattice="5.089549697 -0.054480689 -0.00841468 0.050501057 5.164379191 0.02127972 0.007757749 -0.03336293 5.022357902" Properties=species:S:1:pos:R:3:forces:R:3 generation=8 composition=W8 config_type=A15_aa source_path=V-Cr-Ti-W-Zr/Fixed_Engrads/vcrtiwzr_fin_engrads/job_gen_6-2024-12-23/W/W8_A15_idx_2941 date_processed=2025-02-12T16:54:01.279568 structure_index=2941 structure_id=21789 energy=-102.44436645507812 stress="0.008427560248169114 -0.00015170612081371847 -9.982045545025095e-05 -0.00015170612081371847 0.04676270332954294 -0.0011153015072132054 -9.982045545025095e-05 -0.0011153015072132054 -0.028482278050727127" calculation_info="_JSON {\"calculation_id\": 21788, \"calculator\": \"vasp\", \"calculation_source_path\": \"\", \"error\": null, \"status\": \"completed\", \"gpu_count\": null, \"parameters\": {}, \"date_started\": null, \"gpu_memory_mb\": null, \"model_version\": null, \"date_completed\": null, \"runtime_seconds\": null}" parent_id=21789 step=8 variance=0.0011963688302785158 loss=0.0011963688302785158 pbc="T T T"
W       -0.03806467      -0.03780473      -0.03785563       0.03941968       0.83478940       0.48186237
W        2.53603382       2.50029365       2.47979504       0.82469785       0.44747066       0.93878686
W        1.26745701       2.57308303       5.06854395       0.10216049      -0.71129048      -0.81394994
W        3.81232087       2.54584218       5.06437728       0.16131774      -0.71594369      -0.77671576
W        0.05433777       1.23655804       2.47869335      -1.02591205       0.18816832       0.37482053
W        0.07954655       3.81869231       2.56501801      -0.97201633       0.19694349      -0.55675143
W        2.55951032       5.16649442       1.23490786       0.41331157      -0.57124007       0.17906317
W        2.51317333      -0.09001556       3.72466513       0.45702106       0.33110219       0.17288439
8
Lattice="5.089549697 -0.054480689 -0.00841468 0.050501057 5.164379191 0.02127972 0.007757749 -0.03336293 5.022357902" Properties=species:S:1:pos:R:3:forces:R:3 generation=8 composition=W8 config_type=A15_aa source_path=V-Cr-Ti-W-Zr/Fixed_Engrads/vcrtiwzr_fin_engrads/job_gen_6-2024-12-23/W/W8_A15_idx_2941 date_processed=2025-02-12T16:54:01.279568 structure_index=2941 structure_id=21789 energy=-102.417822265625 stress="0.008427560248169114 -0.00015170612081371847 -9.982045545025095e-05 -0.00015170612081371847 0.04676270332954294 -0.0011153015072132054 -9.982045545025095e-05 -0.0011153015072132054 -0.028482278050727127" calculation_info="_JSON {\"calculation_id\": 21788, \"calculator\": \"vasp\", \"calculation_source_path\": \"\", \"error\": null, \"status\": \"completed\", \"gpu_count\": null, \"parameters\": {}, \"date_started\": null, \"gpu_memory_mb\": null, \"model_version\": null, \"date_completed\": null, \"runtime_seconds\": null}" parent_id=21789 step=9 variance=0.0011835215846076608 loss=0.0011835215846076608 pbc="T T T"
W       -0.04019800      -0.03991010      -0.03996430       0.04157000       0.88113993       0.50855702
W        2.53392322       2.49816771       2.47768750       0.87075216       0.47247559       0.99084312
W        1.26533600       2.57519491       5.07063940       0.10801548      -0.74668300      -0.85677558
W        3.81021165       2.54795392       5.06647594       0.16976322      -0.75237119      -0.81533432
W        0.05644606       1.23444713       2.47658814      -1.08289027       0.19590813       0.39125189
W        0.08165106       3.81657620       2.56713031      -1.02236819       0.20782721      -0.58774167
W        2.55741501       5.16858562       1.23280882       0.43326420      -0.60342073       0.18647631
W        2.51111217      -0.09211320       3.72254798       0.48189336       0.34512424       0.18272324
8
Lattice="5.089549697 -0.054480689 -0.00841468 0.050501057 5.164379191 0.02127972 0.007757749 -0.03336293 5.022357902" Properties=species:S:1:pos:R:3:forces:R:3 generation=8 composition=W8 config_type=A15_aa source_path=V-Cr-Ti-W-Zr/Fixed_Engrads/vcrtiwzr_fin_engrads/job_gen_6-2024-12-23/W/W8_A15_idx_2941 date_processed=2025-02-12T16:54:01.279568 structure_index=2941 structure_id=21789 energy=-102.39298706054687 stress="0.008427560248169114 -0.00015170612081371847 -9.982045545025095e-05 -0.00015170612081371847 0.04676270332954294 -0.0011153015072132054 -9.982045545025095e-05 -0.0011153015072132054 -0.028482278050727127" calculation_info="_JSON {\"calculation_id\": 21788, \"calculator\": \"vasp\", \"calculation_source_path\": \"\", \"error\": null, \"status\": \"completed\", \"gpu_count\": null, \"parameters\": {}, \"date_started\": null, \"gpu_memory_mb\": null, \"model_version\": null, \"date_completed\": null, \"runtime_seconds\": null}" parent_id=21789 step=10 variance=0.00117591698653996 loss=0.00117591698653996 pbc="T T T"
W       -0.04210318      -0.04178898      -0.04184587       0.04346947       0.92248547       0.53234500
W        2.53203970       2.49626905       2.47580643       0.91186780       0.49479094       1.03729832
W        1.26344229       2.57707972       5.07251027       0.11317738      -0.77787250      -0.89475298
W        3.80832939       2.54983859       5.06834976       0.17731650      -0.78452253      -0.84939384
W        0.05832750       1.23256293       2.47470955      -1.13363492       0.20257989       0.40546408
W        0.08352901       3.81468735       2.56901549      -1.06693363       0.21750586      -0.61534053
W        2.55554551       5.17045099       1.23093488       0.45075813      -0.63214904       0.19292504
W        2.50927553      -0.09398428       3.72065788       0.50397944       0.35718188       0.19145502
8
Lattice="5.089549697 -0.054480689 -0.00841468 0.050501057 5.164379191 0.02127972 0.007757749 -0.03336293 5.022357902" Properties=species:S:1:pos:R:3:forces:R:3 generation=8 composition=W8 config_type=A15_aa source_path=V-Cr-Ti-W-Zr/Fixed_Engrads/vcrtiwzr_fin_engrads/job_gen_6-2024-12-23/W/W8_A15_idx_2941 date_processed=2025-02-12T16:54:01.279568 structure_index=2941 structure_id=21789 energy=-102.36981811523438 stress="0.008427560248169114 -0.00015170612081371847 -9.982045545025095e-05 -0.00015170612081371847 0.04676270332954294 -0.0011153015072132054 -9.982045545025095e-05 -0.0011153015072132054 -0.028482278050727127" calculation_info="_JSON {\"calculation_id\": 21788, \"calculator\": \"vasp\", \"calculation_source_path\": \"\", \"error\": null, \"status\": \"completed\", \"gpu_count\": null, \"parameters\": {}, \"date_started\": null, \"gpu_memory_mb\": null, \"model_version\": null, \"date_completed\": null, \"runtime_seconds\": null}" parent_id=21789 step=11 variance=0.001171611249446869 loss=0.001171611249446869 pbc="T T T"
W       -0.04381171      -0.04347271      -0.04353173       0.04517167       0.95951736       0.55363762
W        2.53035190       2.49456624       2.47412044       0.94871980       0.51479077       1.07892513
W        1.26174447       2.57876886       5.07418763       0.11775456      -0.80549681      -0.92859972
W        3.80664265       2.55152760       5.07002988       0.18409875      -0.81304473      -0.87958372
W        0.06001349       1.23087407       2.47302623      -1.17901254       0.20837805       0.41782922
W        0.08521175       3.81299435       2.57070495      -1.10656762       0.22613947      -0.64002943
W        2.55387062       5.17212195       1.22925471       0.46617872      -0.65790176       0.19857016
W        2.50763238      -0.09566015       3.71896345       0.52365685       0.36761752       0.19925067
8
Lattice="5.089549697 -0.054480689 -0.00841468 0.050501057 5.164379191 0.02127972 0.007757749 -0.03336293 5.022357902" Properties=species:S:1:pos:R:3:forces:R:3 generation=8 composition=W8 config_type=A15_aa source_path=V-Cr-Ti-W-Zr/Fixed_Engrads/vcrtiwzr_fin_engrads/job_gen_6-2024-12-23/W/W8_A15_idx_2941 date_processed=2025-02-12T16:54:01.279568 structure_index=2941 structure_id=21789 energy=-102.34825134277344 stress="0.008427560248169114 -0.00015170612081371847 -9.982045545025095e-05 -0.00015170612081371847 0.04676270332954294 -0.0011153015072132054 -9.982045545025095e-05 -0.0011153015072132054 -0.028482278050727127" calculation_info="_JSON {\"calculation_id\": 21788, \"calculator\": \"vasp\", \"calculation_source_path\": \"\", \"error\": null, \"status\": \"completed\", \"gpu_count\": null, \"parameters\": {}, \"date_started\": null, \"gpu_memory_mb\": null, \"model_version\": null, \"date_completed\": null, \"runtime_seconds\": null}" parent_id=21789 step=12 variance=0.0011694489512592554 loss=0.0011694489512592554 pbc="T T T"
W       -0.04534903      -0.04498651      -0.04504721       0.04668000       0.99279344       0.57275152
W        2.52883452       2.49303390       2.47260426       0.98186237       0.53278160       1.11636293
W        1.26021720       2.58028764       5.07569658       0.12182643      -0.83007497      -0.95887899
W        3.80512615       2.55304622       5.07154144       0.19021818      -0.83845311      -0.90647280
W        0.06152929       1.22935527       2.47151290      -1.21973288       0.21343561       0.42865664
W        0.08672452       3.81147187       2.57222401      -1.14195883       0.23388247      -0.66218793
W        2.55236516       5.17362356       1.22774318       0.47984466      -0.68106663       0.20354955
W        2.50615770      -0.09716602       3.71743949       0.54126012       0.37670153       0.20621911
8
Lattice="5.089549697 -0.054480689 -0.00841468 0.050501057 5.164379191 0.02127972 0.007757749 -0.03336293 5.022357902" Properties=species:S:1:pos:R:3:forces:R:3 generation=8 composition=W8 config_type=A15_aa source_path=V-Cr-Ti-W-Zr/Fixed_Engrads/vcrtiwzr_fin_engrads/job_gen_6-2024-12-23/W/W8_A15_idx_2941 date_processed=2025-02-12T16:54:01.279568 structure_index=2941 structure_id=21789 energy=-102.32822265625 stress="0.008427560248169114 -0.00015170612081371847 -9.982045545025095e-05 -0.00015170612081371847 0.04676270332954294 -0.0011153015072132054 -9.982045545025095e-05 -0.0011153015072132054 -0.028482278050727127" calculation_info="_JSON {\"calculation_id\": 21788, \"calculator\": \"vasp\", \"calculation_source_path\": \"\", \"error\": null, \"status\": \"completed\", \"gpu_count\": null, \"parameters\": {}, \"date_started\": null, \"gpu_memory_mb\": null, \"model_version\": null, \"date_completed\": null, \"runtime_seconds\": null}" parent_id=21789 step=13 variance=0.0011687283404171467 loss=0.0011687283404171467 pbc="T T T"
W       -0.04673601      -0.04635113      -0.04641305       0.04804836       1.02278340       0.58996135
W        2.52746675       2.49165128       2.47123717       1.01174617       0.54900366       1.15012956
W        1.25883974       2.58165682       5.07705787       0.12547597      -0.85202014      -0.98606282
W        3.80375912       2.55441525       5.07290504       0.19574063      -0.86116678      -0.93051350
W        0.06289566       1.22798579       2.47014885      -1.25636840       0.21787381       0.43817598
W        0.08808807       3.81009916       2.57359344      -1.17366338       0.24084032      -0.68213034
W        2.55100844       5.17497647       1.22637941       0.49198437      -0.70195901       0.20796409
W        2.50483091      -0.09852267       3.71606524       0.55703604       0.38464469       0.21247582
8
Lattice="5.089549697 -0.054480689 -0.00841468 0.050501057 5.164379191 0.02127972 0.007757749 -0.03336293 5.022357902" Properties=species:S:1:pos:R:3:forces:R:3 generation=8 composition=W8 config_type=A15_aa source_path=V-Cr-Ti-W-Zr/Fixed_Engrads/vcrtiwzr_fin_engrads/job_gen_6-2024-12-23/W/W8_A15_idx_2941 date_processed=2025-02-12T16:54:01.279568 structure_index=2941 structure_id=21789 energy=-102.3096435546875 stress="0.008427560248169114 -0.00015170612081371847 -9.982045545025095e-05 -0.00015170612081371847 0.04676270332954294 -0.0011153015072132054 -9.982045545025095e-05 -0.0011153015072132054 -0.028482278050727127" calculation_info="_JSON {\"calculation_id\": 21788, \"calculator\": \"vasp\", \"calculation_source_path\": \"\", \"error\": null, \"status\": \"completed\", \"gpu_count\": null, \"parameters\": {}, \"date_started\": null, \"gpu_memory_mb\": null, \"model_version\": null, \"date_completed\": null, \"runtime_seconds\": null}" parent_id=21789 step=14 variance=0.001168899005278945 loss=0.001168899005278945 pbc="T T T"
W       -0.04799009      -0.04758389      -0.04764666       0.04929698       1.04985642       0.60549217
W        2.52623118       2.49040098       2.47000185       1.03873968       0.56366944       1.18063235
W        1.25759463       2.58289378       5.07828852       0.12874410      -0.87167102      -1.01052594
W        3.80252424       2.55565205       5.07413787       0.20073715      -0.88153154      -0.95206296
W        0.06412996       1.22674824       2.46891676      -1.28940010       0.22178154       0.44658732
W        0.08931970       3.80885880       2.57483060      -1.20213628       0.24711387      -0.70011985
W        2.54978320       5.17619792       1.22514595       0.50281322      -0.72083920       0.21190408