6
Lattice="0.346212425 3.70850145 3.363516824 4.19163019 -0.375214371 3.928916062 3.705357302 3.42205559 -0.15881503" Properties=species:S:1:pos:R:3:forces:R:3 generation=7 config_type=C15 source_path=/home/myless/Calc_VASP/MRS/job_gen_7-2025-04-10/Ti/Ti6_C15_idx_2964 formula_string=Ti6 composition_str=Ti6 structure_index=2964 date_added_to_db=2025-04-14T00:36:03.128267 structure_id=25532 energy=-44.76998 stress="-0.009294811699701469 -0.016310698621323935 0.012477157474697314 -0.016310698621323935 -0.01605408521512237 -0.014161628440608937 0.012477157474697314 -0.014161628440608937 -0.009676455016712725" calculation_info="_JSON {\"calculation_id\": 25527, \"calculator\": \"vasp\", \"calculation_source_path\": \"/home/myless/Calc_VASP/MRS/job_gen_7-2025-04-10/Ti/Ti6_C15_idx_2964\", \"nbands\": 36, \"parser\": \"ase_outcar\", \"potcar\": \"PAW_PBE Ti_pv 07Sep2000\", \"kpoints\": [10, 8, 10], \"date_run\": \"2025.03.19  08:16:49\", \"vasp_version\": \"vasp.6.4.2 20Jul23\", \"resources_used\": {\"nodes\": 1, \"mpi_ranks\": 4, \"gpus_detected\": true, \"threads_per_rank\": 8}, \"calculation_type\": \"static\"}" pbc="T T T"
Ti       1.03040000       0.84442000       0.89170000       0.00000000       0.00000000       0.00000000
Ti       3.12622000       0.65681000       2.85616000       0.00000000       0.00000000       0.00000000
Ti       2.88308000       2.55545000       0.81229000       0.00000000       0.00000000       0.00000000
Ti       1.20351000       2.69867000       2.57346000       0.00000000       0.00000000       0.00000000
Ti       4.12160000       3.37767000       3.56681000       0.24772400      -0.35585200       0.27469400
Ti       6.18240000       5.06651000       5.35021000      -0.24772400       0.35585200      -0.27469400
6
Lattice="0.346212425 3.70850145 3.363516824 4.19163019 -0.375214371 3.928916062 3.705357302 3.42205559 -0.15881503" Properties=species:S:1:pos:R:3:forces:R:3 generation=8 config_type=C15_aa source_path=/home/myless/Calc_VASP/MRS/job_gen_7-2025-04-10/Ti/Ti6_C15_idx_2964 formula_string=Ti6 composition_str=Ti6 structure_index=2964 date_added_to_db=2025-04-14T00:36:03.128267 structure_id=25532 energy=-44.722344970703126 stress="-0.009294811699701469 -0.016310698621323935 0.012477157474697314 -0.016310698621323935 -0.01605408521512237 -0.014161628440608937 0.012477157474697314 -0.014161628440608937 -0.009676455016712725" calculation_info="_JSON {\"calculation_id\": 25527, \"calculator\": \"vasp\", \"calculation_source_path\": \"/home/myless/Calc_VASP/MRS/job_gen_7-2025-04-10/Ti/Ti6_C15_idx_2964\", \"nbands\": 36, \"parser\": \"ase_outcar\", \"potcar\": \"PAW_PBE Ti_pv 07Sep2000\", \"kpoints\": [10, 8, 10], \"date_run\": \"2025.03.19  08:16:49\", \"vasp_version\": \"vasp.6.4.2 20Jul23\", \"resources_used\": {\"nodes\": 1, \"mpi_ranks\": 4, \"gpus_detected\": true, \"threads_per_rank\": 8}, \"calculation_type\": \"static\"}" parent_id=25532 step=0 variance=0.20830397307872772 loss=0.20830397307872772 pbc="T T T"
Ti       1.03040000       0.84442000       0.89170000       0.00001608       0.00001690       0.00001236
Ti       3.12622000       0.65681000       2.85616000      -0.00002110       0.00002360      -0.00002619
Ti       2.88308000       2.55545000       0.81229000      -0.00002341      -0.00002477       0.00002081
Ti       1.20351000       2.69867000       2.57346000       0.00001821      -0.00001040      -0.00000474
Ti       4.12160000       3.37767000       3.56681000       0.02382381      -0.14166728       0.02119288
Ti       6.18240000       5.06651000       5.35021000      -0.02381355       0.14166193      -0.02119516
6
Lattice="0.346212425 3.70850145 3.363516824 4.19163019 -0.375214371 3.928916062 3.705357302 3.42205559 -0.15881503" Properties=species:S:1:pos:R:3:forces:R:3 generation=8 config_type=C15_aa source_path=/home/myless/Calc_VASP/MRS/job_gen_7-2025-04-10/Ti/Ti6_C15_idx_2964 formula_string=Ti6 composition_str=Ti6 structure_index=2964 date_added_to_db=2025-04-14T00:36:03.128267 structure_id=25532 energy=-44.72234344482422 stress="-0.009294811699701469 -0.016310698621323935 0.012477157474697314 -0.016310698621323935 -0.01605408521512237 -0.014161628440608937 0.012477157474697314 -0.014161628440608937 -0.009676455016712725" calculation_info="_JSON {\"calculation_id\": 25527, \"calculator\": \"vasp\", \"calculation_source_path\": \"/home/myless/Calc_VASP/MRS/job_gen_7-2025-04-10/Ti/Ti6_C15_idx_2964\", \"nbands\": 36, \"parser\": \"ase_outcar\", \"potcar\": \"PAW_PBE Ti_pv 07Sep2000\", \"kpoints\": [10, 8, 10], \"date_run\": \"2025.03.19  08:16:49\", \"vasp_version\": \"vasp.6.4.2 20Jul23\", \"resources_used\": {\"nodes\": 1, \"mpi_ranks\": 4, \"gpus_detected\": true, \"threads_per_rank\": 8}, \"calculation_type\": \"static\"}" parent_id=25532 step=1 variance=0.20829685032367706 loss=0.20829685032367706 pbc="T T T"
Ti       1.04040000       0.85442000       0.90170000       0.00001626       0.00001690       0.00001228
Ti       3.13622000       0.66681000       2.86616000      -0.00002136       0.00002354      -0.00002579
Ti       2.89308000       2.56545000       0.82229000      -0.00002225      -0.00002527       0.00002101
Ti       1.21351000       2.70867000       2.58346000       0.00001766      -0.00001011      -0.00000494
Ti       4.13160000       3.38767000       3.57681000       0.02382376      -0.14166644       0.02119330
Ti       6.19240000       5.07651000       5.36021000      -0.02381408       0.14166138      -0.02119585
6
Lattice="0.346212425 3.70850145 3.363516824 4.19163019 -0.375214371 3.928916062 3.705357302 3.42205559 -0.15881503" Properties=species:S:1:pos:R:3:forces:R:3 generation=8 config_type=C15_aa source_path=/home/myless/Calc_VASP/MRS/job_gen_7-2025-04-10/Ti/Ti6_C15_idx_2964 formula_string=Ti6 composition_str=Ti6 structure_index=2964 date_added_to_db=2025-04-14T00:36:03.128267 structure_id=25532 energy=-44.722357177734374 stress="-0.009294811699701469 -0.016310698621323935 0.012477157474697314 -0.016310698621323935 -0.01605408521512237 -0.014161628440608937 0.012477157474697314 -0.014161628440608937 -0.009676455016712725" calculation_info="_JSON {\"calculation_id\": 25527, \"calculator\": \"vasp\", \"calculation_source_path\": \"/home/myless/Calc_VASP/MRS/job_gen_7-2025-04-10/Ti/Ti6_C15_idx_2964\", \"nbands\": 36, \"parser\": \"ase_outcar\", \"potcar\": \"PAW_PBE Ti_pv 07Sep2000\", \"kpoints\": [10, 8, 10], \"date_run\": \"2025.03.19  08:16:49\", \"vasp_version\": \"vasp.6.4.2 20Jul23\", \"resources_used\": {\"nodes\": 1, \"mpi_ranks\": 4, \"gpus_detected\": true, \"threads_per_rank\": 8}, \"calculation_type\": \"static\"}" parent_id=25532 step=2 variance=0.21634316444396973 loss=0.21634316444396973 pbc="T T T"
Ti       1.05039953       0.86441842       0.91170148       0.00005545       0.00010193       0.00005729
Ti       3.14622428       0.67681039       2.87617297      -0.00007820       0.00005043      -0.00006502
Ti       2.90308147       2.57545557       0.83229538      -0.00009627      -0.00007417       0.00010188
Ti       1.22350287       2.71868205       2.59346535       0.00008262      -0.00009984      -0.00011766
Ti       4.14160854       3.39760668       3.58681298       0.02379779      -0.14161053       0.02119517
Ti       6.20238248       5.08651807       5.37022214      -0.02376137       0.14163218      -0.02117168
6
Lattice="0.346212425 3.70850145 3.363516824 4.19163019 -0.375214371 3.928916062 3.705357302 3.42205559 -0.15881503" Properties=species:S:1:pos:R:3:forces:R:3 generation=8 config_type=C15_aa source_path=/home/myless/Calc_VASP/MRS/job_gen_7-2025-04-10/Ti/Ti6_C15_idx_2964 formula_string=Ti6 composition_str=Ti6 structure_index=2964 date_added_to_db=2025-04-14T00:36:03.128267 structure_id=25532 energy=-44.72219314575195 stress="-0.009294811699701469 -0.016310698621323935 0.012477157474697314 -0.016310698621323935 -0.01605408521512237 -0.014161628440608937 0.012477157474697314 -0.014161628440608937 -0.009676455016712725" calculation_info="_JSON {\"calculation_id\": 25527, \"calculator\": \"vasp\", \"calculation_source_path\": \"/home/myless/Calc_VASP/MRS/job_gen_7-2025-04-10/Ti/Ti6_C15_idx_2964\", \"nbands\": 36, \"parser\": \"ase_outcar\", \"potcar\": \"PAW_PBE Ti_pv 07Sep2000\", \"kpoints\": [10, 8, 10], \"date_run\": \"2025.03.19  08:16:49\", \"vasp_version\": \"vasp.6.4.2 20Jul23\", \"resources_used\": {\"nodes\": 1, \"mpi_ranks\": 4, \"gpus_detected\": true, \"threads_per_rank\": 8}, \"calculation_type\": \"static\"}" parent_id=25532 step=3 variance=0.20636267960071564 loss=0.20636267960071564 pbc="T T T"
Ti       1.05927774       0.87245458       0.91872240      -0.01100154      -0.02861371      -0.02560957
Ti       3.15396370       0.68515284       2.88371171       0.01817875      -0.02262031       0.01183493
Ti       2.91098491       2.58146375       0.84202440       0.02443960       0.02295600      -0.01819432
Ti       1.23228772       2.71907184       2.60127979      -0.03244307       0.02989956       0.03805781
Ti       4.15123296       3.40491269       3.59622847       0.02414471      -0.14245054       0.01819884
Ti       6.21190029       5.09386991       5.37965425      -0.02331851       0.14082895      -0.02428766
6
Lattice="0.346212425 3.70850145 3.363516824 4.19163019 -0.375214371 3.928916062 3.705357302 3.42205559 -0.15881503" Properties=species:S:1:pos:R:3:forces:R:3 generation=8 config_type=C15_aa source_path=/home/myless/Calc_VASP/MRS/job_gen_7-2025-04-10/Ti/Ti6_C15_idx_2964 formula_string=Ti6 composition_str=Ti6 structure_index=2964 date_added_to_db=2025-04-14T00:36:03.128267 structure_id=25532 energy=-44.72179489135742 stress="-0.009294811699701469 -0.016310698621323935 0.012477157474697314 -0.016310698621323935 -0.01605408521512237 -0.014161628440608937 0.012477157474697314 -0.014161628440608937 -0.009676455016712725" calculation_info="_JSON {\"calculation_id\": 25527, \"calculator\": \"vasp\", \"calculation_source_path\": \"/home/myless/Calc_VASP/MRS/job_gen_7-2025-04-10/Ti/Ti6_C15_idx_2964\", \"nbands\": 36, \"parser\": \"ase_outcar\", \"potcar\": \"PAW_PBE Ti_pv 07Sep2000\", \"kpoints\": [10, 8, 10], \"date_run\": \"2025.03.19  08:16:49\", \"vasp_version\": \"vasp.6.4.2 20Jul23\", \"resources_used\": {\"nodes\": 1, \"mpi_ranks\": 4, \"gpus_detected\": true, \"threads_per_rank\": 8}, \"calculation_type\": \"static\"}" parent_id=25532 step=4 variance=0.2062111496925354 loss=0.2062111496925354 pbc="T T T"
Ti       1.06653361       0.87903599       0.92446853      -0.01993169      -0.05198373      -0.04658809
Ti       3.16030239       0.69198726       2.88989132       0.03313879      -0.04119371       0.02152282
Ti       2.91746440       2.58639300       0.84998862       0.04438015       0.04171992      -0.03307956
Ti       1.23948270       2.71937953       2.60768977      -0.05904335       0.05444626       0.06925155
Ti       4.15912413       3.41089542       3.60394431       0.02444740      -0.14324683       0.01580230
Ti       6.21969258       5.09989368       5.38737265      -0.02299132       0.14025807      -0.02690901
6
Lattice="0.346212425 3.70850145 3.363516824 4.19163019 -0.375214371 3.928916062 3.705357302 3.42205559 -0.15881503" Properties=species:S:1:pos:R:3:forces:R:3 generation=8 config_type=C15_aa source_path=/home/myless/Calc_VASP/MRS/job_gen_7-2025-04-10/Ti/Ti6_C15_idx_2964 formula_string=Ti6 composition_str=Ti6 structure_index=2964 date_added_to_db=2025-04-14T00:36:03.128267 structure_id=25532 energy=-44.72128143310547 stress="-0.009294811699701469 -0.016310698621323935 0.012477157474697314 -0.016310698621323935 -0.01605408521512237 -0.014161628440608937 0.012477157474697314 -0.014161628440608937 -0.009676455016712725" calculation_info="_JSON {\"calculation_id\": 25527, \"calculator\": \"vasp\", \"calculation_source_path\": \"/home/myless/Calc_VASP/MRS/job_gen_7-2025-04-10/Ti/Ti6_C15_idx_2964\", \"nbands\": 36, \"parser\": \"ase_outcar\", \"potcar\": \"PAW_PBE Ti_pv 07Sep2000\", \"kpoints\": [10, 8, 10], \"date_run\": \"2025.03.19  08:16:49\", \"vasp_version\": \"vasp.6.4.2 20Jul23\", \"resources_used\": {\"nodes\": 1, \"mpi_ranks\": 4, \"gpus_detected\": true, \"threads_per_rank\": 8}, \"calculation_type\": \"static\"}" parent_id=25532 step=5 variance=0.20599038898944855 loss=0.20599038898944855 pbc="T T T"
Ti       1.07265804       0.88459803       0.92932309      -0.02741350      -0.07166655      -0.06429400
Ti       3.16565923       0.69776431       2.89511707       0.04578354      -0.05688968       0.02967681
Ti       2.92294376       2.59056287       0.85671748       0.06115552       0.05753231      -0.04561230
Ti       1.24556337       2.71963538       2.61311208      -0.08149718       0.07518344       0.09556954
Ti       4.16580032       3.41595043       3.61046971       0.02471099      -0.14399667       0.01382646
Ti       6.22627445       5.10498669       5.39388961      -0.02273936       0.13983716      -0.02916653
6
Lattice="0.346212425 3.70850145 3.363516824 4.19163019 -0.375214371 3.928916062 3.705357302 3.42205559 -0.15881503" Properties=species:S:1:pos:R:3:forces:R:3 generation=8 config_type=C15_aa source_path=/home/myless/Calc_VASP/MRS/job_gen_7-2025-04-10/Ti/Ti6_C15_idx_2964 formula_string=Ti6 composition_str=Ti6 structure_index=2964 date_added_to_db=2025-04-14T00:36:03.128267 structure_id=25532 energy=-44.72070846557617 stress="-0.009294811699701469 -0.016310698621323935 0.012477157474697314 -0.016310698621323935 -0.01605408521512237 -0.014161628440608937 0.012477157474697314 -0.014161628440608937 -0.009676455016712725" calculation_info="_JSON {\"calculation_id\": 25527, \"calculator\": \"vasp\", \"calculation_source_path\": \"/home/myless/Calc_VASP/MRS/job_gen_7-2025-04-10/Ti/Ti6_C15_idx_2964\", \"nbands\": 36, \"parser\": \"ase_outcar\", \"potcar\": \"PAW_PBE Ti_pv 07Sep2000\", \"kpoints\": [10, 8, 10], \"date_run\": \"2025.03.19  08:16:49\", \"vasp_version\": \"vasp.6.4.2 20Jul23\", \"resources_used\": {\"nodes\": 1, \"mpi_ranks\": 4, \"gpus_detected\": true, \"threads_per_rank\": 8}, \"calculation_type\": \"static\"}" parent_id=25532 step=6 variance=0.20573849976062775 loss=0.20573849976062775 pbc="T T T"
Ti       1.07793045       0.88939129       0.93350588      -0.03382262      -0.08856941      -0.07952477
Ti       3.17027537       0.70274366       2.89962310       0.05668361      -0.07042025       0.03667759
Ti       2.92766821       2.59415890       0.86251527       0.07555853       0.07112320      -0.05638320
Ti       1.25080366       2.71985523       2.61778819      -0.10082289       0.09305348       0.11820932
Ti       4.17156032       3.42030556       3.61609742       0.02494270      -0.14469770       0.01215930
Ti       6.23194285       5.10937771       5.39949989      -0.02253934       0.13951066      -0.03113824
6
Lattice="0.346212425 3.70850145 3.363516824 4.19163019 -0.375214371 3.928916062 3.705357302 3.42205559 -0.15881503" Properties=species:S:1:pos:R:3:forces:R:3 generation=8 config_type=C15_aa source_path=/home/myless/Calc_VASP/MRS/job_gen_7-2025-04-10/Ti/Ti6_C15_idx_2964 formula_string=Ti6 composition_str=Ti6 structure_index=2964 date_added_to_db=2025-04-14T00:36:03.128267 structure_id=25532 energy=-44.72010498046875 stress="-0.009294811699701469 -0.016310698621323935 0.012477157474697314 -0.016310698621323935 -0.01605408521512237 -0.014161628440608937 0.012477157474697314 -0.014161628440608937 -0.009676455016712725" calculation_info="_JSON {\"calculation_id\": 25527, \"calculator\": \"vasp\", \"calculation_source_path\": \"/home/myless/Calc_VASP/MRS/job_gen_7-2025-04-10/Ti/Ti6_C15_idx_2964\", \"nbands\": 36, \"parser\": \"ase_outcar\", \"potcar\": \"PAW_PBE Ti_pv 07Sep2000\", \"kpoints\": [10, 8, 10], \"date_run\": \"2025.03.19  08:16:49\", \"vasp_version\": \"vasp.6.4.2 20Jul23\", \"resources_used\": {\"nodes\": 1, \"mpi_ranks\": 4, \"gpus_detected\": true, \"threads_per_rank\": 8}, \"calculation_type\": \"static\"}" parent_id=25532 step=7 variance=0.20546872913837433 loss=0.20546872913837433 pbc="T T T"
Ti       1.08252975       0.89357685       0.93715784      -0.03938711      -0.10328023      -0.09279792
Ti       3.17430583       0.70709233       2.90356009       0.06620790      -0.08223455       0.04277843
Ti       2.93179554       2.59730029       0.86757728       0.08809160       0.08296473      -0.06576397
Ti       1.25537960       2.72004817       2.62187378      -0.11767592       0.10864878       0.13793305
Ti       4.17659627       3.42410732       3.62101567       0.02514406      -0.14535432       0.01072801
Ti       6.23688877       5.11321386       5.40439304      -0.02238054       0.13925561      -0.03287759
6
Lattice="0.346212425 3.70850145 3.363516824 4.19163019 -0.375214371 3.928916062 3.705357302 3.42205559 -0.15881503" Properties=species:S:1:pos:R:3:forces:R:3 generation=8 config_type=C15_aa source_path=/home/myless/Calc_VASP/MRS/job_gen_7-2025-04-10/Ti/Ti6_C15_idx_2964 formula_string=Ti6 composition_str=Ti6 structure_index=2964 date_added_to_db=2025-04-14T00:36:03.128267 structure_id=25532 energy=-44.71950073242188 stress="-0.009294811699701469 -0.016310698621323935 0.012477157474697314 -0.016310698621323935 -0.01605408521512237 -0.014161628440608937 0.012477157474697314 -0.014161628440608937 -0.009676455016712725" calculation_info="_JSON {\"calculation_id\": 25527, \"calculator\": \"vasp\", \"calculation_source_path\": \"/home/myless/Calc_VASP/MRS/job_gen_7-2025-04-10/Ti/Ti6_C15_idx_2964\", \"nbands\": 36, \"parser\": \"ase_outcar\", \"potcar\": \"PAW_PBE Ti_pv 07Sep2000\", \"kpoints\": [10, 8, 10], \"date_run\": \"2025.03.19  08:16:49\", \"vasp_version\": \"vasp.6.4.2 20Jul23\", \"resources_used\": {\"nodes\": 1, \"mpi_ranks\": 4, \"gpus_detected\": true, \"threads_per_rank\": 8}, \"calculation_type\": \"static\"}" parent_id=25532 step=8 variance=0.20520193874835968 loss=0.20520193874835968 pbc="T T T"
Ti       1.08658060       0.89726637       0.94037701      -0.04426607      -0.11620432      -0.10447560
Ti       3.17785819       0.71092615       2.90703263       0.07460115      -0.09265117       0.04814038
Ti       2.93543524       2.60007023       0.87203884       0.09910913       0.09338029      -0.07401690
Ti       1.25941343       2.72022124       2.62547711      -0.13251086       0.12238874       0.15528519
Ti       4.18104150       3.42745728       3.62535503       0.02531964      -0.14596109       0.00948833
Ti       6.24124486       5.11659712       5.40870053      -0.02225297       0.13904752      -0.03442138
6
Lattice="0.346212425 3.70850145 3.363516824 4.19163019 -0.375214371 3.928916062 3.705357302 3.42205559 -0.15881503" Properties=species:S:1:pos:R:3:forces:R:3 generation=8 config_type=C15_aa source_path=/home/myless/Calc_VASP/MRS/job_gen_7-2025-04-10/Ti/Ti6_C15_idx_2964 formula_string=Ti6 composition_str=Ti6 structure_index=2964 date_added_to_db=2025-04-14T00:36:03.128267 structure_id=25532 energy=-44.718903350830075 stress="-0.009294811699701469 -0.016310698621323935 0.012477157474697314 -0.016310698621323935 -0.01605408521512237 -0.014161628440608937 0.012477157474697314 -0.014161628440608937 -0.009676455016712725" calculation_info="_JSON {\"calculation_id\": 25527, \"calculator\": \"vasp\", \"calculation_source_path\": \"/home/myless/Calc_VASP/MRS/job_gen_7-2025-04-10/Ti/Ti6_C15_idx_2964\", \"nbands\": 36, \"parser\": \"ase_outcar\", \"potcar\": \"PAW_PBE Ti_pv 07Sep2000\", \"kpoints\": [10, 8, 10], \"date_run\": \"2025.03.19  08:16:49\", \"vasp_version\": \"vasp.6.4.2 20Jul23\", \"resources_used\": {\"nodes\": 1, \"mpi_ranks\": 4, \"gpus_detected\": true, \"threads_per_rank\": 8}, \"calculation_type\": \"static\"}" parent_id=25532 step=9 variance=0.2049407958984375 loss=0.2049407958984375 pbc="T T T"
Ti       1.09017317       0.90054141       0.94323465      -0.04857612      -0.12764576      -0.11481776
Ti       3.18101085       0.71432972       2.91011706       0.08204776      -0.10188969       0.05288718
Ti       2.93866731       2.60252957       0.87599877       0.10886302       0.10260409      -0.08132724
Ti       1.26299394       2.72037802       2.62867692      -0.14566007       0.13458219       0.17064999
Ti       4.18499315       3.43042964       3.62921056       0.02547219      -0.14652486       0.00840511
Ti       6.24510792       5.11960199       5.41251810      -0.02214687       0.13887396      -0.03579729
6
Lattice="0.346212425 3.70850145 3.363516824 4.19163019 -0.375214371 3.928916062 3.705357302 3.42205559 -0.15881503" Properties=species:S:1:pos:R:3:forces:R:3 generation=8 config_type=C15_aa source_path=/home/myless/Calc_VASP/MRS/job_gen_7-2025-04-10/Ti/Ti6_C15_idx_2964 formula_string=Ti6 composition_str=Ti6 structure_index=2964 date_added_to_db=2025-04-14T00:36:03.128267 structure_id=25532 energy=-44.718326568603516 stress="-0.009294811699701469 -0.016310698621323935 0.012477157474697314 -0.016310698621323935 -0.01605408521512237 -0.014161628440608937 0.012477157474697314 -0.014161628440608937 -0.009676455016712725" calculation_info="_JSON {\"calculation_id\": 25527, \"calculator\": \"vasp\", \"calculation_source_path\": \"/home/myless/Calc_VASP/MRS/job_gen_7-2025-04-10/Ti/Ti6_C15_idx_2964\", \"nbands\": 36, \"parser\": \"ase_outcar\", \"potcar\": \"PAW_PBE Ti_pv 07Sep2000\", \"kpoints\": [10, 8, 10], \"date_run\": \"2025.03.19  08:16:49\", \"vasp_version\": \"vasp.6.4.2 20Jul23\", \"resources_used\": {\"nodes\": 1, \"mpi_ranks\": 4, \"gpus_detected\": true, \"threads_per_rank\": 8}, \"calculation_type\": \"static\"}" parent_id=25532 step=10 variance=0.20469029247760773 loss=0.20469029247760773 pbc="T T T"
Ti       1.09337601       0.90346391       0.94578499      -0.05240728      -0.13781638      -0.12402032
Ti       3.18382356       0.71736745       2.91287160       0.08869250      -0.11013122       0.05711450
Ti       2.94155267       2.60472432       0.87953224       0.11754157       0.11081500      -0.08784113
Ti       1.26618889       2.72052220       2.63153349      -0.15736702       0.14544740       0.18431990
Ti       4.18852542       3.43308085       3.63265484       0.02560261      -0.14704441       0.00744934
Ti       6.24855156       5.12228513       5.41591885      -0.02206242       0.13872956      -0.03702233
6
Lattice="0.346212425 3.70850145 3.363516824 4.19163019 -0.375214371 3.928916062 3.705357302 3.42205559 -0.15881503" Properties=species:S:1:pos:R:3:forces:R:3 generation=8 config_type=C15_aa source_path=/home/myless/Calc_VASP/MRS/job_gen_7-2025-04-10/Ti/Ti6_C15_idx_2964 formula_string=Ti6 composition_str=Ti6 structure_index=2964 date_added_to_db=2025-04-14T00:36:03.128267 structure_id=25532 energy=-44.717769622802734 stress="-0.009294811699701469 -0.016310698621323935 0.012477157474697314 -0.016310698621323935 -0.01605408521512237 -0.014161628440608937 0.012477157474697314 -0.014161628440608937 -0.009676455016712725" calculation_info="_JSON {\"calculation_id\": 25527, \"calculator\": \"vasp\", \"calculation_source_path\": \"/home/myless/Calc_VASP/MRS/job_gen_7-2025-04-10/Ti/Ti6_C15_idx_2964\", \"nbands\": 36, \"parser\": \"ase_outcar\", \"potcar\": \"PAW_PBE Ti_pv 07Sep2000\", \"kpoints\": [10, 8, 10], \"date_run\": \"2025.03.19  08:16:49\", \"vasp_version\": \"vasp.6.4.2 20Jul23\", \"resources_used\": {\"nodes\": 1, \"mpi_ranks\": 4, \"gpus_detected\": true, \"threads_per_rank\": 8}, \"calculation_type\": \"static\"}" parent_id=25532 step=11 variance=0.204457089304924 loss=0.204457089304924 pbc="T T T"
Ti       1.09624343       0.90608283       0.94807078      -0.05581845      -0.14689185      -0.13224217
Ti       3.18634328       0.72008999       2.91534198       0.09464193      -0.11751459       0.06089172
Ti       2.94413922       2.60669084       0.88269830       0.12529592       0.11815492      -0.09366874
Ti       1.26905197       2.72065665       2.63409423      -0.16783738       0.15517269       0.19653542
Ti       4.19169641       3.43545532       3.63574472       0.02571096      -0.14752381       0.00660497
Ti       6.25163383       5.12469111       5.41896024      -0.02199293       0.13860261      -0.03812118
6
Lattice="0.346212425 3.70850145 3.363516824 4.19163019 -0.375214371 3.928916062 3.705357302 3.42205559 -0.15881503" Properties=species:S:1:pos:R:3:forces:R:3 generation=8 config_type=C15_aa source_path=/home/myless/Calc_VASP/MRS/job_gen_7-2025-04-10/Ti/Ti6_C15_idx_2964 formula_string=Ti6 composition_str=Ti6 structure_index=2964 date_added_to_db=2025-04-14T00:36:03.128267 structure_id=25532 energy=-44.71724243164063 stress="-0.009294811699701469 -0.016310698621323935 0.012477157474697314 -0.016310698621323935 -0.01605408521512237 -0.014161628440608937 0.012477157474697314 -0.014161628440608937 -0.009676455016712725" calculation_info="_JSON {\"calculation_id\": 25527, \"calculator\": \"vasp\", \"calculation_source_path\": \"/home/myless/Calc_VASP/MRS/job_gen_7-2025-04-10/Ti/Ti6_C15_idx_2964\", \"nbands\": 36, \"parser\": \"ase_outcar\", \"potcar\": \"PAW_PBE Ti_pv 07Sep2000\", \"kpoints\": [10, 8, 10], \"date_run\": \"2025.03.19  08:16:49\", \"vasp_version\": \"vasp.6.4.2 20Jul23\", \"resources_used\": {\"nodes\": 1, \"mpi_ranks\": 4, \"gpus_detected\": true, \"threads_per_rank\": 8}, \"calculation_type\": \"static\"}" parent_id=25532 step=12 variance=0.20423968136310577 loss=0.20423968136310577 pbc="T T T"
Ti       1.09881874       0.90843730       0.95012631      -0.05887539      -0.15502265      -0.13960686
Ti       3.18860773       0.72253803       2.91756495       0.09998173      -0.12414191       0.06428558
Ti       2.94646550       2.60845837       0.88554461       0.13225533       0.12473430      -0.09890197
Ti       1.27162584       2.72078282       2.63639707      -0.17722733       0.16390219       0.20747440
Ti       4.19455278       3.43758873       3.63852617       0.02580033      -0.14796416       0.00585333
Ti       6.25440126       5.12685579       5.42168838      -0.02193466       0.13849223      -0.03910443
6
Lattice="0.346212425 3.70850145 3.363516824 4.19163019 -0.375214371 3.928916062 3.705357302 3.42205559 -0.15881503" Properties=species:S:1:pos:R:3:forces:R:3 generation=8 config_type=C15_aa source_path=/home/myless/Calc_VASP/MRS/job_gen_7-2025-04-10/Ti/Ti6_C15_idx_2964 formula_string=Ti6 composition_str=Ti6 structure_index=2964 date_added_to_db=2025-04-14T00:36:03.128267 structure_id=25532 energy=-44.71674270629883 stress="-0.009294811699701469 -0.016310698621323935 0.012477157474697314 -0.016310698621323935 -0.01605408521512237 -0.014161628440608937 0.012477157474697314 -0.014161628440608937 -0.009676455016712725" calculation_info="_JSON {\"calculation_id\": 25527, \"calculator\": \"vasp\", \"calculation_source_path\": \"/home/myless/Calc_VASP/MRS/job_gen_7-2025-04-10/Ti/Ti6_C15_idx_2964\", \"nbands\": 36, \"parser\": \"ase_outcar\", \"potcar\": \"PAW_PBE Ti_pv 07Sep2000\", \"kpoints\": [10, 8, 10], \"date_run\": \"2025.03.19  08:16:49\", \"vasp_version\": \"vasp.6.4.2 20Jul23\", \"resources_used\": {\"nodes\": 1, \"mpi_ranks\": 4, \"gpus_detected\": true, \"threads_per_rank\": 8}, \"calculation_type\": \"static\"}" parent_id=25532 step=13 variance=0.20404267311096191 loss=0.20404267311096191 pbc="T T T"
Ti       1.10113779       0.91055968       0.95197986      -0.06161938      -0.16231753      -0.14622039
Ti       3.19064807       0.72474507       2.91957081       0.10479158      -0.13011095       0.06733058
Ti       2.94856340       2.61005140       0.88811030       0.13850509       0.13064466      -0.10360892
Ti       1.27394593       2.72090304       2.63847351      -0.18566635       0.17175417       0.21729752
Ti       4.19713328       3.43951050       3.64103697       0.02587579      -0.14836323       0.00518357
Ti       6.25689215       5.12880865       5.42414129      -0.02188675       0.13839285      -0.03998240
6
Lattice="0.346212425 3.70850145 3.363516824 4.19163019 -0.375214371 3.928916062 3.705357302 3.42205559 -0.15881503" Properties=species:S:1:pos:R:3:forces:R:3 generation=8 config_type=C15_aa source_path=/home/myless/Calc_VASP/MRS/job_gen_7-2025-04-10/Ti/Ti6_C15_idx_2964 formula_string=Ti6 composition_str=Ti6 structure_index=2964 date_added_to_db=2025-04-14T00:36:03.128267 structure_id=25532 energy=-44.71627655029297 stress="-0.009294811699701469 -0.016310698621323935 0.012477157474697314 -0.016310698621323935 -0.01605408521512237 -0.014161628440608937 0.012477157474697314 -0.014161628440608937 -0.009676455016712725" calculation_info="_JSON {\"calculation_id\": 25527, \"calculator\": \"vasp\", \"calculation_source_path\": \"/home/myless/Calc_VASP/MRS/job_gen_7-2025-04-10/Ti/Ti6_C15_idx_2964\", \"nbands\": 36, \"parser\": \"ase_outcar\", \"potcar\": \"PAW_PBE Ti_pv 07Sep2000\", \"kpoints\": [10, 8, 10], \"date_run\": \"2025.03.19  08:16:49\", \"vasp_version\": \"vasp.6.4.2 20Jul23\", \"resources_used\": {\"nodes\": 1, \"mpi_ranks\": 4, \"gpus_detected\": true, \"threads_per_rank\": 8}, \"calculation_type\": \"static\"}" parent_id=25532 step=14 variance=0.20386682450771332 loss=0.20386682450771332 pbc="T T T"
Ti       1.10323048       0.91247681       0.95365506      -0.06408723      -0.16887537      -0.15216348
Ti       3.19249026       0.72673908       2.92138481       0.10912943      -0.13548858       0.07007142
Ti       2.95045930       2.61148960       0.89042769       0.14413880       0.13596714      -0.10785758
Ti       1.27604167       2.72101870       2.64034984      -0.19326684       0.17882745       0.22613490
Ti       4.19946994       3.44124515       3.64330843       0.02593229      -0.14872840       0.00458242
Ti       6.25913852       5.13057428       5.42635083      -0.02184647       0.13829772      -0.04076766
6