6
Lattice="-0.053186601 3.728756364 3.693694375 3.651037822 0.004651079 3.715988682 3.739717019 3.753354723 -0.047333991" Properties=species:S:1:pos:R:3:forces:R:3 generation=6 composition=W6 config_type=C15 source_path=V-Cr-Ti-W-Zr/Fixed_Engrads/vcrtiwzr_fin_engrads/job_gen_6-2024-12-23/W/W6_C15_idx_3048 date_processed=2025-02-12T16:53:56.680784 structure_index=3048 structure_id=21699 energy=-74.889854 stress="0.04209187621669732 0.005880150713531121 -0.014937223330627693 0.005880150713531121 0.04394518000446409 -0.00794559091346841 -0.014937223330627693 -0.00794559091346841 0.0423427786420487" calculation_info="_JSON {\"calculation_id\": 21698, \"calculator\": \"vasp\", \"calculation_source_path\": \"\", \"error\": null, \"status\": \"completed\", \"gpu_count\": null, \"parameters\": {}, \"date_started\": null, \"gpu_memory_mb\": null, \"model_version\": null, \"date_completed\": null, \"runtime_seconds\": null}" pbc="T T T"
W        0.91720000       0.93585000       0.92029000       0.00000000       0.00000000       0.00000000
W        2.74271000       0.93817000       2.77829000       0.00000000       0.00000000       0.00000000
W        2.78705000       2.81252000       0.89663000       0.00000000       0.00000000       0.00000000
W        0.89060000       2.80022000       2.76714000       0.00000000       0.00000000       0.00000000
W        3.66878000       3.74338000       3.68117000       0.02134100       0.03989200      -0.01324700
W        5.50318000       5.61507000       5.52176000      -0.02134100      -0.03989200       0.01324700
6
Lattice="-0.053186601 3.728756364 3.693694375 3.651037822 0.004651079 3.715988682 3.739717019 3.753354723 -0.047333991" Properties=species:S:1:pos:R:3:forces:R:3 generation=8 composition=W6 config_type=C15_aa source_path=V-Cr-Ti-W-Zr/Fixed_Engrads/vcrtiwzr_fin_engrads/job_gen_6-2024-12-23/W/W6_C15_idx_3048 date_processed=2025-02-12T16:53:56.680784 structure_index=3048 structure_id=21699 energy=-74.86247863769532 stress="0.04209187621669732 0.005880150713531121 -0.014937223330627693 0.005880150713531121 0.04394518000446409 -0.00794559091346841 -0.014937223330627693 -0.00794559091346841 0.0423427786420487" calculation_info="_JSON {\"calculation_id\": 21698, \"calculator\": \"vasp\", \"calculation_source_path\": \"\", \"error\": null, \"status\": \"completed\", \"gpu_count\": null, \"parameters\": {}, \"date_started\": null, \"gpu_memory_mb\": null, \"model_version\": null, \"date_completed\": null, \"runtime_seconds\": null}" parent_id=21699 step=0 variance=0.21339018642902374 loss=0.21339018642902374 pbc="T T T"
W        0.91720000       0.93585000       0.92029000      -0.00011021      -0.00014365      -0.00004730
W        2.74271000       0.93817000       2.77829000       0.00006585      -0.00005624       0.00001513
W        2.78705000       2.81252000       0.89663000       0.00013910       0.00010614      -0.00005831
W        0.89060000       2.80022000       2.76714000      -0.00006218       0.00006906       0.00005635
W        3.66878000       3.74338000       3.68117000       0.01516775       0.02620151      -0.00944191
W        5.50318000       5.61507000       5.52176000      -0.01520040      -0.02617686       0.00947601
6
Lattice="-0.053186601 3.728756364 3.693694375 3.651037822 0.004651079 3.715988682 3.739717019 3.753354723 -0.047333991" Properties=species:S:1:pos:R:3:forces:R:3 generation=8 composition=W6 config_type=C15_aa source_path=V-Cr-Ti-W-Zr/Fixed_Engrads/vcrtiwzr_fin_engrads/job_gen_6-2024-12-23/W/W6_C15_idx_3048 date_processed=2025-02-12T16:53:56.680784 structure_index=3048 structure_id=21699 energy=-74.86247863769532 stress="0.04209187621669732 0.005880150713531121 -0.014937223330627693 0.005880150713531121 0.04394518000446409 -0.00794559091346841 -0.014937223330627693 -0.00794559091346841 0.0423427786420487" calculation_info="_JSON {\"calculation_id\": 21698, \"calculator\": \"vasp\", \"calculation_source_path\": \"\", \"error\": null, \"status\": \"completed\", \"gpu_count\": null, \"parameters\": {}, \"date_started\": null, \"gpu_memory_mb\": null, \"model_version\": null, \"date_completed\": null, \"runtime_seconds\": null}" parent_id=21699 step=1 variance=0.21322865784168243 loss=0.21322865784168243 pbc="T T T"
W        0.92720000       0.94585000       0.93029000      -0.00010994      -0.00014165      -0.00004682
W        2.75271000       0.94817000       2.78829000       0.00006542      -0.00005633       0.00001535
W        2.79705000       2.82252000       0.90663000       0.00013887       0.00010733      -0.00005715
W        0.90060000       2.81022000       2.77714000      -0.00006099       0.00007008       0.00005558
W        3.67878000       3.75338000       3.69117000       0.01516675       0.02620221      -0.00944178
W        5.51318000       5.62507000       5.53176000      -0.01520013      -0.02618165       0.00947493
6
Lattice="-0.053186601 3.728756364 3.693694375 3.651037822 0.004651079 3.715988682 3.739717019 3.753354723 -0.047333991" Properties=species:S:1:pos:R:3:forces:R:3 generation=8 composition=W6 config_type=C15_aa source_path=V-Cr-Ti-W-Zr/Fixed_Engrads/vcrtiwzr_fin_engrads/job_gen_6-2024-12-23/W/W6_C15_idx_3048 date_processed=2025-02-12T16:53:56.680784 structure_index=3048 structure_id=21699 energy=-74.8624771118164 stress="0.04209187621669732 0.005880150713531121 -0.014937223330627693 0.005880150713531121 0.04394518000446409 -0.00794559091346841 -0.014937223330627693 -0.00794559091346841 0.0423427786420487" calculation_info="_JSON {\"calculation_id\": 21698, \"calculator\": \"vasp\", \"calculation_source_path\": \"\", \"error\": null, \"status\": \"completed\", \"gpu_count\": null, \"parameters\": {}, \"date_started\": null, \"gpu_memory_mb\": null, \"model_version\": null, \"date_completed\": null, \"runtime_seconds\": null}" parent_id=21699 step=2 variance=0.21534210443496704 loss=0.21534210443496704 pbc="T T T"
W        0.93720525       0.95584860       0.94028973      -0.00010385       0.00009270      -0.00006820
W        2.76270100       0.95817701       2.79829572       0.00030013      -0.00015652      -0.00001098
W        2.80705248       2.83252645       0.91663940       0.00016455       0.00005978      -0.00021805
W        0.91061026       2.82023303       2.78714632      -0.00023506       0.00005153      -0.00011985
W        3.68878715       3.76339097       3.70117554       0.01515972       0.02616559      -0.00949848
W        5.52319354       5.63508076       5.54172093      -0.01528540      -0.02621319       0.00991551
6
Lattice="-0.053186601 3.728756364 3.693694375 3.651037822 0.004651079 3.715988682 3.739717019 3.753354723 -0.047333991" Properties=species:S:1:pos:R:3:forces:R:3 generation=8 composition=W6 config_type=C15_aa source_path=V-Cr-Ti-W-Zr/Fixed_Engrads/vcrtiwzr_fin_engrads/job_gen_6-2024-12-23/W/W6_C15_idx_3048 date_processed=2025-02-12T16:53:56.680784 structure_index=3048 structure_id=21699 energy=-74.861083984375 stress="0.04209187621669732 0.005880150713531121 -0.014937223330627693 0.005880150713531121 0.04394518000446409 -0.00794559091346841 -0.014937223330627693 -0.00794559091346841 0.0423427786420487" calculation_info="_JSON {\"calculation_id\": 21698, \"calculator\": \"vasp\", \"calculation_source_path\": \"\", \"error\": null, \"status\": \"completed\", \"gpu_count\": null, \"parameters\": {}, \"date_started\": null, \"gpu_memory_mb\": null, \"model_version\": null, \"date_completed\": null, \"runtime_seconds\": null}" parent_id=21699 step=3 variance=0.1044628918170929 loss=0.1044628918170929 pbc="T T T"
W        0.94550779       0.96387081       0.94859838      -0.05123542      -0.02995455      -0.10895865
W        2.76284144       0.96529660       2.80606871       0.17046276      -0.07071479       0.02640237
W        2.81444736       2.84038375       0.92428412       0.02012360      -0.01358148      -0.01319853
W        0.92024366       2.82407977       2.79467336      -0.09540777       0.12782189       0.02264740
W        3.69741532       3.77096366       3.70945054      -0.00681405       0.01463888      -0.01718907
W        5.53172329       5.64177227       5.54202054      -0.03712913      -0.02820992       0.09029647
6
Lattice="-0.053186601 3.728756364 3.693694375 3.651037822 0.004651079 3.715988682 3.739717019 3.753354723 -0.047333991" Properties=species:S:1:pos:R:3:forces:R:3 generation=8 composition=W6 config_type=C15_aa source_path=V-Cr-Ti-W-Zr/Fixed_Engrads/vcrtiwzr_fin_engrads/job_gen_6-2024-12-23/W/W6_C15_idx_3048 date_processed=2025-02-12T16:53:56.680784 structure_index=3048 structure_id=21699 energy=-74.85825805664062 stress="0.04209187621669732 0.005880150713531121 -0.014937223330627693 0.005880150713531121 0.04394518000446409 -0.00794559091346841 -0.014937223330627693 -0.00794559091346841 0.0423427786420487" calculation_info="_JSON {\"calculation_id\": 21698, \"calculator\": \"vasp\", \"calculation_source_path\": \"\", \"error\": null, \"status\": \"completed\", \"gpu_count\": null, \"parameters\": {}, \"date_started\": null, \"gpu_memory_mb\": null, \"model_version\": null, \"date_completed\": null, \"runtime_seconds\": null}" parent_id=21699 step=4 variance=0.09503456205129623 loss=0.09503456205129623 pbc="T T T"
W        0.95233047       0.97038374       0.95548986      -0.09098157      -0.05086831      -0.20244963
W        2.76315695       0.97113689       2.81246866       0.31114763      -0.13194299       0.04416600
W        2.82084030       2.84681521       0.93045327       0.02498528      -0.02628263      -0.02176117
W        0.92813264       2.82659808       2.80122131      -0.17399380       0.24103287       0.03270919
W        3.70362037       3.77787496       3.71231959      -0.01647311      -0.00423815       0.01856501
W        5.53870588       5.64697733       5.54469365      -0.05468447      -0.02770071       0.12877056
6
Lattice="-0.053186601 3.728756364 3.693694375 3.651037822 0.004651079 3.715988682 3.739717019 3.753354723 -0.047333991" Properties=species:S:1:pos:R:3:forces:R:3 generation=8 composition=W6 config_type=C15_aa source_path=V-Cr-Ti-W-Zr/Fixed_Engrads/vcrtiwzr_fin_engrads/job_gen_6-2024-12-23/W/W6_C15_idx_3048 date_processed=2025-02-12T16:53:56.680784 structure_index=3048 structure_id=21699 energy=-74.85508728027344 stress="0.04209187621669732 0.005880150713531121 -0.014937223330627693 0.005880150713531121 0.04394518000446409 -0.00794559091346841 -0.014937223330627693 -0.00794559091346841 0.0423427786420487" calculation_info="_JSON {\"calculation_id\": 21698, \"calculator\": \"vasp\", \"calculation_source_path\": \"\", \"error\": null, \"status\": \"completed\", \"gpu_count\": null, \"parameters\": {}, \"date_started\": null, \"gpu_memory_mb\": null, \"model_version\": null, \"date_completed\": null, \"runtime_seconds\": null}" parent_id=21699 step=5 variance=0.1144983246922493 loss=0.1144983246922493 pbc="T T T"
W        0.95819195       0.97589495       0.96114414      -0.12772055      -0.06874211      -0.26669368
W        2.76468042       0.97607315       2.81733441       0.40625304      -0.17797522       0.06698875
W        2.82643232       2.85171955       0.93541111       0.02710733      -0.02370724      -0.02814012
W        0.93477420       2.82907551       2.80672099      -0.22864445       0.32066512       0.03973659
W        3.70761498       3.78403769       3.71785685      -0.00810735      -0.02327147       0.01377032
W        5.54473157       5.65136927       5.54572843      -0.06888804      -0.02696895       0.17433809
6
Lattice="-0.053186601 3.728756364 3.693694375 3.651037822 0.004651079 3.715988682 3.739717019 3.753354723 -0.047333991" Properties=species:S:1:pos:R:3:forces:R:3 generation=8 composition=W6 config_type=C15_aa source_path=V-Cr-Ti-W-Zr/Fixed_Engrads/vcrtiwzr_fin_engrads/job_gen_6-2024-12-23/W/W6_C15_idx_3048 date_processed=2025-02-12T16:53:56.680784 structure_index=3048 structure_id=21699 energy=-74.85148010253906 stress="0.04209187621669732 0.005880150713531121 -0.014937223330627693 0.005880150713531121 0.04394518000446409 -0.00794559091346841 -0.014937223330627693 -0.00794559091346841 0.0423427786420487" calculation_info="_JSON {\"calculation_id\": 21698, \"calculator\": \"vasp\", \"calculation_source_path\": \"\", \"error\": null, \"status\": \"completed\", \"gpu_count\": null, \"parameters\": {}, \"date_started\": null, \"gpu_memory_mb\": null, \"model_version\": null, \"date_completed\": null, \"runtime_seconds\": null}" parent_id=21699 step=6 variance=0.10046396404504776 loss=0.10046396404504776 pbc="T T T"
W        0.96321655       0.98072994       0.96585681      -0.16012454      -0.08541898      -0.31924194
W        2.76561922       0.98032318       2.82125935       0.48831835      -0.21398064       0.08803503
W        2.83126528       2.85614857       0.93924464       0.02879232      -0.02856385      -0.02654948
W        0.94016394       2.83181041       2.81125392      -0.26825505       0.37760338       0.04436088
W        3.71177719       3.78710778       3.72485858      -0.00911923      -0.01640551      -0.01635145
W        5.54970830       5.65562466       5.54502726      -0.07961204      -0.03323439       0.22974703
6
Lattice="-0.053186601 3.728756364 3.693694375 3.651037822 0.004651079 3.715988682 3.739717019 3.753354723 -0.047333991" Properties=species:S:1:pos:R:3:forces:R:3 generation=8 composition=W6 config_type=C15_aa source_path=V-Cr-Ti-W-Zr/Fixed_Engrads/vcrtiwzr_fin_engrads/job_gen_6-2024-12-23/W/W6_C15_idx_3048 date_processed=2025-02-12T16:53:56.680784 structure_index=3048 structure_id=21699 energy=-74.84831848144532 stress="0.04209187621669732 0.005880150713531121 -0.014937223330627693 0.005880150713531121 0.04394518000446409 -0.00794559091346841 -0.014937223330627693 -0.00794559091346841 0.0423427786420487" calculation_info="_JSON {\"calculation_id\": 21698, \"calculator\": \"vasp\", \"calculation_source_path\": \"\", \"error\": null, \"status\": \"completed\", \"gpu_count\": null, \"parameters\": {}, \"date_started\": null, \"gpu_memory_mb\": null, \"model_version\": null, \"date_completed\": null, \"runtime_seconds\": null}" parent_id=21699 step=7 variance=0.1197291910648346 loss=0.1197291910648346 pbc="T T T"
W        0.96760584       0.98496388       0.97007579      -0.18442591      -0.09610184      -0.36205444
W        2.76657452       0.98406778       2.82489416       0.55539137      -0.24589893       0.10053714
W        2.83573032       2.86017871       0.94257009       0.02278253      -0.03970708      -0.02274710
W        0.94486365       2.83433499       2.81560954      -0.30086234       0.42093867       0.04023787
W        3.71486995       3.78816921       3.72843746      -0.00444965       0.00591414      -0.01459567
W        5.55404568       5.65980739       5.54623167      -0.08843610      -0.04514494       0.25862217
6
Lattice="-0.053186601 3.728756364 3.693694375 3.651037822 0.004651079 3.715988682 3.739717019 3.753354723 -0.047333991" Properties=species:S:1:pos:R:3:forces:R:3 generation=8 composition=W6 config_type=C15_aa source_path=V-Cr-Ti-W-Zr/Fixed_Engrads/vcrtiwzr_fin_engrads/job_gen_6-2024-12-23/W/W6_C15_idx_3048 date_processed=2025-02-12T16:53:56.680784 structure_index=3048 structure_id=21699 energy=-74.84505157470703 stress="0.04209187621669732 0.005880150713531121 -0.014937223330627693 0.005880150713531121 0.04394518000446409 -0.00794559091346841 -0.014937223330627693 -0.00794559091346841 0.0423427786420487" calculation_info="_JSON {\"calculation_id\": 21698, \"calculator\": \"vasp\", \"calculation_source_path\": \"\", \"error\": null, \"status\": \"completed\", \"gpu_count\": null, \"parameters\": {}, \"date_started\": null, \"gpu_memory_mb\": null, \"model_version\": null, \"date_completed\": null, \"runtime_seconds\": null}" parent_id=21699 step=8 variance=0.1314033418893814 loss=0.1314033418893814 pbc="T T T"
W        0.97151625       0.98869354       0.97392290      -0.21276183      -0.10957029      -0.40801936
W        2.76718591       0.98739096       2.82808971       0.62424189      -0.28356990       0.11831494
W        2.83978977       2.86304990       0.94555974       0.01516345      -0.03776494      -0.02101327
W        0.94897838       2.83572813       2.81981534      -0.33332223       0.47449684       0.03391080
W        3.71721218       3.78979050       3.72956528       0.00303474       0.01547366       0.00985641
W        5.55786921       5.66360101       5.54891862      -0.09635602      -0.05906532       0.26695049
6
Lattice="-0.053186601 3.728756364 3.693694375 3.651037822 0.004651079 3.715988682 3.739717019 3.753354723 -0.047333991" Properties=species:S:1:pos:R:3:forces:R:3 generation=8 composition=W6 config_type=C15_aa source_path=V-Cr-Ti-W-Zr/Fixed_Engrads/vcrtiwzr_fin_engrads/job_gen_6-2024-12-23/W/W6_C15_idx_3048 date_processed=2025-02-12T16:53:56.680784 structure_index=3048 structure_id=21699 energy=-74.84148559570312 stress="0.04209187621669732 0.005880150713531121 -0.014937223330627693 0.005880150713531121 0.04394518000446409 -0.00794559091346841 -0.014937223330627693 -0.00794559091346841 0.0423427786420487" calculation_info="_JSON {\"calculation_id\": 21698, \"calculator\": \"vasp\", \"calculation_source_path\": \"\", \"error\": null, \"status\": \"completed\", \"gpu_count\": null, \"parameters\": {}, \"date_started\": null, \"gpu_memory_mb\": null, \"model_version\": null, \"date_completed\": null, \"runtime_seconds\": null}" parent_id=21699 step=9 variance=0.1798975020647049 loss=0.1798975020647049 pbc="T T T"
W        0.97509957       0.99206790       0.97725703      -0.25395769      -0.13265619      -0.45229691
W        2.76791651       0.99034804       2.83033009       0.68753988      -0.32545811       0.15365362
W        2.84337142       2.86410626       0.94804937       0.01405235      -0.00611530      -0.02350832
W        0.95245493       2.83632677       2.82358618      -0.35890135       0.53179991       0.03032775
W        3.71904846       3.79245830       3.73210553       0.01339615       0.00787349       0.01367822
W        5.56122189       5.66709823       5.55086416      -0.10212930      -0.07544385       0.27814564
6
Lattice="-0.053186601 3.728756364 3.693694375 3.651037822 0.004651079 3.715988682 3.739717019 3.753354723 -0.047333991" Properties=species:S:1:pos:R:3:forces:R:3 generation=8 composition=W6 config_type=C15_aa source_path=V-Cr-Ti-W-Zr/Fixed_Engrads/vcrtiwzr_fin_engrads/job_gen_6-2024-12-23/W/W6_C15_idx_3048 date_processed=2025-02-12T16:53:56.680784 structure_index=3048 structure_id=21699 energy=-74.83735961914063 stress="0.04209187621669732 0.005880150713531121 -0.014937223330627693 0.005880150713531121 0.04394518000446409 -0.00794559091346841 -0.014937223330627693 -0.00794559091346841 0.0423427786420487" calculation_info="_JSON {\"calculation_id\": 21698, \"calculator\": \"vasp\", \"calculation_source_path\": \"\", \"error\": null, \"status\": \"completed\", \"gpu_count\": null, \"parameters\": {}, \"date_started\": null, \"gpu_memory_mb\": null, \"model_version\": null, \"date_completed\": null, \"runtime_seconds\": null}" parent_id=21699 step=10 variance=0.17425422370433807 loss=0.17425422370433807 pbc="T T T"
W        0.97833576       0.99511969       0.98016166      -0.29626426      -0.15322009      -0.49484196
W        2.76782972       0.99292622       2.83241035       0.75729811      -0.35408053       0.18784846
W        2.84712884       2.86473761       0.94889140      -0.00944257       0.02209798       0.01419616
W        0.95452860       2.83561288       2.82776058      -0.35882381       0.59993762       0.01049172
W        3.72104472       3.79568046       3.73607020       0.01515570      -0.01257779       0.00229807
W        5.56398937       5.67095543       5.55369555      -0.10792328      -0.10215718       0.28000757
6
Lattice="-0.053186601 3.728756364 3.693694375 3.651037822 0.004651079 3.715988682 3.739717019 3.753354723 -0.047333991" Properties=species:S:1:pos:R:3:forces:R:3 generation=8 composition=W6 config_type=C15_aa source_path=V-Cr-Ti-W-Zr/Fixed_Engrads/vcrtiwzr_fin_engrads/job_gen_6-2024-12-23/W/W6_C15_idx_3048 date_processed=2025-02-12T16:53:56.680784 structure_index=3048 structure_id=21699 energy=-74.83211059570313 stress="0.04209187621669732 0.005880150713531121 -0.014937223330627693 0.005880150713531121 0.04394518000446409 -0.00794559091346841 -0.014937223330627693 -0.00794559091346841 0.0423427786420487" calculation_info="_JSON {\"calculation_id\": 21698, \"calculator\": \"vasp\", \"calculation_source_path\": \"\", \"error\": null, \"status\": \"completed\", \"gpu_count\": null, \"parameters\": {}, \"date_started\": null, \"gpu_memory_mb\": null, \"model_version\": null, \"date_completed\": null, \"runtime_seconds\": null}" parent_id=21699 step=11 variance=0.18028901517391205 loss=0.18028901517391205 pbc="T T T"
W        0.98112406       0.99789729       0.98284069      -0.33167869      -0.17720182      -0.54574758
W        2.76646991       0.99524787       2.83445055       0.83929110      -0.38772351       0.21382800
W        2.84981748       2.86643116       0.95020214      -0.01114959       0.02652582       0.03113844
W        0.95690150       2.83568781       2.83046742      -0.38370800       0.66265023       0.01357843
W        3.72394279       3.79641636       3.73942856       0.00206912      -0.00575215      -0.00734378
W        5.56640070       5.67383537       5.55491582      -0.11482390      -0.11849864       0.29454646
6
Lattice="-0.053186601 3.728756364 3.693694375 3.651037822 0.004651079 3.715988682 3.739717019 3.753354723 -0.047333991" Properties=species:S:1:pos:R:3:forces:R:3 generation=8 composition=W6 config_type=C15_aa source_path=V-Cr-Ti-W-Zr/Fixed_Engrads/vcrtiwzr_fin_engrads/job_gen_6-2024-12-23/W/W6_C15_idx_3048 date_processed=2025-02-12T16:53:56.680784 structure_index=3048 structure_id=21699 energy=-74.82556762695313 stress="0.04209187621669732 0.005880150713531121 -0.014937223330627693 0.005880150713531121 0.04394518000446409 -0.00794559091346841 -0.014937223330627693 -0.00794559091346841 0.0423427786420487" calculation_info="_JSON {\"calculation_id\": 21698, \"calculator\": \"vasp\", \"calculation_source_path\": \"\", \"error\": null, \"status\": \"completed\", \"gpu_count\": null, \"parameters\": {}, \"date_started\": null, \"gpu_memory_mb\": null, \"model_version\": null, \"date_completed\": null, \"runtime_seconds\": null}" parent_id=21699 step=12 variance=0.13808779418468475 loss=0.13808779418468475 pbc="T T T"
W        0.98352641       1.00040689       0.98554999      -0.36492008      -0.20505950      -0.61148846
W        2.76381529       0.99738284       2.83668568       0.94109476      -0.43502107       0.23611192
W        2.85180782       2.86838489       0.95213409      -0.00001576       0.02060136       0.02969865
W        0.95946537       2.83550900       2.83260198      -0.43244195       0.73676670       0.02919813
W        3.72740191       3.79572718       3.73903034      -0.02239872       0.01395690       0.02162044
W        5.56839606       5.67615231       5.55721151      -0.12131836      -0.13124421       0.29485929
6
Lattice="-0.053186601 3.728756364 3.693694375 3.651037822 0.004651079 3.715988682 3.739717019 3.753354723 -0.047333991" Properties=species:S:1:pos:R:3:forces:R:3 generation=8 composition=W6 config_type=C15_aa source_path=V-Cr-Ti-W-Zr/Fixed_Engrads/vcrtiwzr_fin_engrads/job_gen_6-2024-12-23/W/W6_C15_idx_3048 date_processed=2025-02-12T16:53:56.680784 structure_index=3048 structure_id=21699 energy=-74.81865539550782 stress="0.04209187621669732 0.005880150713531121 -0.014937223330627693 0.005880150713531121 0.04394518000446409 -0.00794559091346841 -0.014937223330627693 -0.00794559091346841 0.0423427786420487" calculation_info="_JSON {\"calculation_id\": 21698, \"calculator\": \"vasp\", \"calculation_source_path\": \"\", \"error\": null, \"status\": \"completed\", \"gpu_count\": null, \"parameters\": {}, \"date_started\": null, \"gpu_memory_mb\": null, \"model_version\": null, \"date_completed\": null, \"runtime_seconds\": null}" parent_id=21699 step=13 variance=0.15475234389305115 loss=0.15475234389305115 pbc="T T T"
W        0.98568240       1.00261311       0.98799434      -0.39705163      -0.23335497      -0.67531979
W        2.76182410       0.99934393       2.83816201       1.03022492      -0.48746943       0.26339459
W        2.85338871       2.87006560       0.95449249       0.02087115       0.02173159       0.00464600
W        0.96228759       2.83559669       2.83390208      -0.49038559       0.80203247       0.05496681
W        3.73001055       3.79519837       3.73900429      -0.03697709       0.03173993       0.04037410
W        5.57026781       5.67758952       5.55742966      -0.12668185      -0.13467963       0.31193829
6
Lattice="-0.053186601 3.728756364 3.693694375 3.651037822 0.004651079 3.715988682 3.739717019 3.753354723 -0.047333991" Properties=species:S:1:pos:R:3:forces:R:3 generation=8 composition=W6 config_type=C15_aa source_path=V-Cr-Ti-W-Zr/Fixed_Engrads/vcrtiwzr_fin_engrads/job_gen_6-2024-12-23/W/W6_C15_idx_3048 date_processed=2025-02-12T16:53:56.680784 structure_index=3048 structure_id=21699 energy=-74.8115020751953 stress="0.04209187621669732 0.005880150713531121 -0.014937223330627693 0.005880150713531121 0.04394518000446409 -0.00794559091346841 -0.014937223330627693 -0.00794559091346841 0.0423427786420487" calculation_info="_JSON {\"calculation_id\": 21698, \"calculator\": \"vasp\", \"calculation_source_path\": \"\", \"error\": null, \"status\": \"completed\", \"gpu_count\": null, \"parameters\": {}, \"date_started\": null, \"gpu_memory_mb\": null, \"model_version\": null, \"date_completed\": null, \"runtime_seconds\": null}" parent_id=21699 step=14 variance=0.151234433054924 loss=0.151234433054924 pbc="T T T"
W        0.98745678       1.00439272       0.99027022      -0.41227001      -0.24576509      -0.73610967
W        2.76020012       1.00113048       2.83932556       1.10960817      -0.53357238       0.27938446
W        2.85524279       2.87281491       0.95687244       0.02589753       0.00065919      -0.02014503
W        0.96498686       2.83573535       2.83495325      -0.54651916       0.85907555       0.07533693
W        3.73204175       3.79459140       3.73891710      -0.04640299       0.05054061       0.05680151
W        5.57183343       5.67839266       5.55595610      -0.13031353      -0.13093781       0.34473175
6
Lattice="-0.053186601 3.728756364 3.693694375 3.651037822 0.004651079 3.715988682 3.739717019 3.753354723 -0.047333991" Properties=species:S:1:pos:R:3:forces:R:3 generation=8 composition=W6 config_type=C15_aa source_path=V-Cr-Ti-W-Zr/Fixed_Engrads/vcrtiwzr_fin_engrads/job_gen_6-2024-12-23/W/W6_C15_idx_3048 date_processed=2025-02-12T16:53:56.680784 structure_index=3048 structure_id=21699 energy=-74.80452880859374 stress="0.04209187621669732 0.005880150713531121 -0.014937223330627693 0.005880150713531121 0.04394518000446409 -0.00794559091346841 -0.014937223330627693 -0.00794559091346841 0.0423427786420487" calculation_info="_JSON {\"calculation_id\": 21698, \"calculator\": \"vasp\", \"calculation_source_path\": \"\", \"error\": null, \"status\": \"completed\", \"gpu_count\": null, \"parameters\": {}, \"date_started\": null, \"gpu_memory_mb\": null, \"model_version\": null, \"date_completed\": null, \"runtime_seconds\": null}" parent_id=21699 step=15 variance=0.13590164482593536 loss=0.13590164482593536 pbc="T T T"
W        0.98907279       1.00597368       0.99232566      -0.43012729      -0.25486499      -0.79128706
W        2.75894332       1.00276035       2.84006968       1.18075192      -0.57515430       0.30118805
W        2.85746164       2.87463432       0.95856554       0.01505330      -0.00795215      -0.02986897
W        0.96689782       2.83515061       2.83654914      -0.58285159       0.91627586       0.08017820
W        3.73361094       3.79458009       3.73909614      -0.05186408       0.05868197       0.06950917
W        5.57303857       5.67973069       5.55505560      -0.13096216      -0.13698657       0.37028053
6
Lattice="-0.053186601 3.728756364 3.693694375 3.651037822 0.004651079 3.715988682 3.739717019 3.753354723 -0.047333991" Properties=species:S:1:pos:R:3:forces:R:3 generation=8 composition=W6 config_type=C15_aa source_path=V-Cr-Ti-W-Zr/Fixed_Engrads/vcrtiwzr_fin_engrads/job_gen_6-2024-12-23/W/W6_C15_idx_3048 date_processed=2025-02-12T16:53:56.680784 structure_index=3048 structure_id=21699 energy=-74.79780578613281 stress="0.04209187621669732 0.005880150713531121 -0.014937223330627693 0.005880150713531121 0.04394518000446409 -0.00794559091346841 -0.014937223330627693 -0.00794559091346841 0.0423427786420487" calculation_info="_JSON {\"calculation_id\": 21698, \"calculator\": \"vasp\", \"calculation_source_path\": \"\", \"error\": null, \"status\": \"completed\", \"gpu_count\": null, \"parameters\": {}, \"date_started\": null, \"gpu_memory_mb\": null, \"model_version\": null, \"date_completed\": null, \"runtime_seconds\": null}" parent_id=21699 step=16 variance=0.1489384025335312 loss=0.1489384025335312 pbc="T T T"
W        0.99062607       1.00747873       0.99415719      -0.45394439      -0.26709563      -0.84081697
W        2.75773617       1.00422359       2.84071466       1.24753952      -0.61194742       0.32709286
W        2.85966799       2.87550947       0.95954234      -0.00094973      -0.00372735      -0.02487838
W        0.96819572       2.83401015       2.83848267      -0.60475141       0.97497666       0.07682143
W        3.73493683       3.79501997       3.73962299      -0.05650001       0.05843707       0.07848497
W        5.57408240       5.68146282       5.55529889      -0.13139409      -0.15064338       0.38329601
6