6
Lattice="0.106943087 4.119837385 3.790107211 4.53087333 -0.465850752 4.204277982 4.051740166 4.280859648 -0.475252778" Properties=species:S:1:pos:R:3:forces:R:3 generation=7 config_type=C15 source_path=/home/myless/Calc_VASP/MRS/job_gen_7-2025-04-10/Zr/Zr6_C15_idx_2920 formula_string=Zr6 composition_str=Zr6 structure_index=2920 date_added_to_db=2025-04-14T00:28:13.572968 structure_id=24392 energy=-48.93994 stress="0.042986321923491146 -0.006936345129322213 0.005504031132096269 -0.006936345129322213 0.049540337169798256 -0.00812663212717378 0.005504031132096269 -0.00812663212717378 0.04420593153121612" calculation_info="_JSON {\"calculation_id\": 24387, \"calculator\": \"vasp\", \"calculation_source_path\": \"/home/myless/Calc_VASP/MRS/job_gen_7-2025-04-10/Zr/Zr6_C15_idx_2920\", \"nbands\": 44, \"parser\": \"ase_outcar\", \"potcar\": \"PAW_PBE Zr_sv 04Jan2005\", \"kpoints\": [9, 8, 8], \"date_run\": \"2025.03.16  01:13:47\", \"vasp_version\": \"vasp.6.4.2 20Jul23\", \"resources_used\": {\"nodes\": 1, \"mpi_ranks\": 4, \"gpus_detected\": true, \"threads_per_rank\": 8}, \"calculation_type\": \"static\"}" pbc="T T T"
Zr       1.08619000       0.99186000       0.93989000       0.00000000       0.00000000       0.00000000
Zr       3.35163000       0.75893000       3.04203000       0.00000000       0.00000000       0.00000000
Zr       3.11206000       3.13229000       0.70227000       0.00000000       0.00000000       0.00000000
Zr       1.13967000       3.05177000       2.83495000       0.00000000       0.00000000       0.00000000
Zr       4.34478000       3.96742000       3.75957000       0.25527400      -0.10697700       0.13516000
Zr       6.51717000       5.95113000       5.63935000      -0.25527400       0.10697700      -0.13516000
6
Lattice="0.106943087 4.119837385 3.790107211 4.53087333 -0.465850752 4.204277982 4.051740166 4.280859648 -0.475252778" Properties=species:S:1:pos:R:3:forces:R:3 generation=8 config_type=C15_aa source_path=/home/myless/Calc_VASP/MRS/job_gen_7-2025-04-10/Zr/Zr6_C15_idx_2920 formula_string=Zr6 composition_str=Zr6 structure_index=2920 date_added_to_db=2025-04-14T00:28:13.572968 structure_id=24392 energy=-48.91539611816406 stress="0.042986321923491146 -0.006936345129322213 0.005504031132096269 -0.006936345129322213 0.049540337169798256 -0.00812663212717378 0.005504031132096269 -0.00812663212717378 0.04420593153121612" calculation_info="_JSON {\"calculation_id\": 24387, \"calculator\": \"vasp\", \"calculation_source_path\": \"/home/myless/Calc_VASP/MRS/job_gen_7-2025-04-10/Zr/Zr6_C15_idx_2920\", \"nbands\": 44, \"parser\": \"ase_outcar\", \"potcar\": \"PAW_PBE Zr_sv 04Jan2005\", \"kpoints\": [9, 8, 8], \"date_run\": \"2025.03.16  01:13:47\", \"vasp_version\": \"vasp.6.4.2 20Jul23\", \"resources_used\": {\"nodes\": 1, \"mpi_ranks\": 4, \"gpus_detected\": true, \"threads_per_rank\": 8}, \"calculation_type\": \"static\"}" parent_id=24392 step=0 variance=0.2021169513463974 loss=0.2021169513463974 pbc="T T T"
Zr       1.08619000       0.99186000       0.93989000       0.00000250      -0.00000458      -0.00000185
Zr       3.35163000       0.75893000       3.04203000       0.00000980      -0.00001431       0.00000039
Zr       3.11206000       3.13229000       0.70227000       0.00001262       0.00000587      -0.00001811
Zr       1.13967000       3.05177000       2.83495000      -0.00002154       0.00000902       0.00002967
Zr       4.34478000       3.96742000       3.75957000       0.05370716       0.05424670      -0.08336647
Zr       6.51717000       5.95113000       5.63935000      -0.05371054      -0.05424269       0.08335636
6
Lattice="0.106943087 4.119837385 3.790107211 4.53087333 -0.465850752 4.204277982 4.051740166 4.280859648 -0.475252778" Properties=species:S:1:pos:R:3:forces:R:3 generation=8 config_type=C15_aa source_path=/home/myless/Calc_VASP/MRS/job_gen_7-2025-04-10/Zr/Zr6_C15_idx_2920 formula_string=Zr6 composition_str=Zr6 structure_index=2920 date_added_to_db=2025-04-14T00:28:13.572968 structure_id=24392 energy=-48.9107177734375 stress="0.042986321923491146 -0.006936345129322213 0.005504031132096269 -0.006936345129322213 0.049540337169798256 -0.00812663212717378 0.005504031132096269 -0.00812663212717378 0.04420593153121612" calculation_info="_JSON {\"calculation_id\": 24387, \"calculator\": \"vasp\", \"calculation_source_path\": \"/home/myless/Calc_VASP/MRS/job_gen_7-2025-04-10/Zr/Zr6_C15_idx_2920\", \"nbands\": 44, \"parser\": \"ase_outcar\", \"potcar\": \"PAW_PBE Zr_sv 04Jan2005\", \"kpoints\": [9, 8, 8], \"date_run\": \"2025.03.16  01:13:47\", \"vasp_version\": \"vasp.6.4.2 20Jul23\", \"resources_used\": {\"nodes\": 1, \"mpi_ranks\": 4, \"gpus_detected\": true, \"threads_per_rank\": 8}, \"calculation_type\": \"static\"}" parent_id=24392 step=1 variance=0.14719976484775543 loss=0.14719976484775543 pbc="T T T"
Zr       1.07619000       0.98186000       0.92989000       0.10962403       0.14391339       0.07593094
Zr       3.36163000       0.74893000       3.03203000      -0.07025672       0.03986055      -0.04149286
Zr       3.12206000       3.14229000       0.69227000      -0.16581692      -0.09764886       0.11471647
Zr       1.12967000       3.04177000       2.84495000       0.10830895      -0.10137643      -0.13428061
Zr       4.33478000       3.95742000       3.74957000       0.06266876       0.06156483      -0.09023000
Zr       6.50717000       5.94113000       5.62935000      -0.04452811      -0.04631349       0.07535613
6
Lattice="0.106943087 4.119837385 3.790107211 4.53087333 -0.465850752 4.204277982 4.051740166 4.280859648 -0.475252778" Properties=species:S:1:pos:R:3:forces:R:3 generation=8 config_type=C15_aa source_path=/home/myless/Calc_VASP/MRS/job_gen_7-2025-04-10/Zr/Zr6_C15_idx_2920 formula_string=Zr6 composition_str=Zr6 structure_index=2920 date_added_to_db=2025-04-14T00:28:13.572968 structure_id=24392 energy=-48.90230102539063 stress="0.042986321923491146 -0.006936345129322213 0.005504031132096269 -0.006936345129322213 0.049540337169798256 -0.00812663212717378 0.005504031132096269 -0.00812663212717378 0.04420593153121612" calculation_info="_JSON {\"calculation_id\": 24387, \"calculator\": \"vasp\", \"calculation_source_path\": \"/home/myless/Calc_VASP/MRS/job_gen_7-2025-04-10/Zr/Zr6_C15_idx_2920\", \"nbands\": 44, \"parser\": \"ase_outcar\", \"potcar\": \"PAW_PBE Zr_sv 04Jan2005\", \"kpoints\": [9, 8, 8], \"date_run\": \"2025.03.16  01:13:47\", \"vasp_version\": \"vasp.6.4.2 20Jul23\", \"resources_used\": {\"nodes\": 1, \"mpi_ranks\": 4, \"gpus_detected\": true, \"threads_per_rank\": 8}, \"calculation_type\": \"static\"}" parent_id=24392 step=2 variance=0.15143875777721405 loss=0.15143875777721405 pbc="T T T"
Zr       1.06948897       0.97515950       0.92319040       0.18320481       0.24056821       0.12682493
Zr       3.36833073       0.74223217       3.02532546      -0.11733431       0.06642170      -0.06923947
Zr       3.12876141       3.14900313       0.68556842      -0.27726537      -0.16313058       0.19170050
Zr       1.12297063       3.03506694       2.85165220       0.18090531      -0.16938117      -0.22457886
Zr       4.32768469       3.95073885       3.74286402       0.06823040       0.06587499      -0.09379569
Zr       6.50085828       5.93440218       5.62266047      -0.03774084      -0.04035319       0.06908856
6
Lattice="0.106943087 4.119837385 3.790107211 4.53087333 -0.465850752 4.204277982 4.051740166 4.280859648 -0.475252778" Properties=species:S:1:pos:R:3:forces:R:3 generation=8 config_type=C15_aa source_path=/home/myless/Calc_VASP/MRS/job_gen_7-2025-04-10/Zr/Zr6_C15_idx_2920 formula_string=Zr6 composition_str=Zr6 structure_index=2920 date_added_to_db=2025-04-14T00:28:13.572968 structure_id=24392 energy=-48.892869567871095 stress="0.042986321923491146 -0.006936345129322213 0.005504031132096269 -0.006936345129322213 0.049540337169798256 -0.00812663212717378 0.005504031132096269 -0.00812663212717378 0.04420593153121612" calculation_info="_JSON {\"calculation_id\": 24387, \"calculator\": \"vasp\", \"calculation_source_path\": \"/home/myless/Calc_VASP/MRS/job_gen_7-2025-04-10/Zr/Zr6_C15_idx_2920\", \"nbands\": 44, \"parser\": \"ase_outcar\", \"potcar\": \"PAW_PBE Zr_sv 04Jan2005\", \"kpoints\": [9, 8, 8], \"date_run\": \"2025.03.16  01:13:47\", \"vasp_version\": \"vasp.6.4.2 20Jul23\", \"resources_used\": {\"nodes\": 1, \"mpi_ranks\": 4, \"gpus_detected\": true, \"threads_per_rank\": 8}, \"calculation_type\": \"static\"}" parent_id=24392 step=3 variance=0.1567636877298355 loss=0.1567636877298355 pbc="T T T"
Zr       1.06430818       0.96998000       0.91801275       0.24021900       0.31551987       0.16618156
Zr       3.37351074       0.73705788       3.02013772      -0.15368217       0.08680211      -0.09063260
Zr       3.13394384       3.15420846       0.68038623      -0.36378527      -0.21380696       0.25131097
Zr       1.11779290       3.02988329       2.85683521       0.23701277      -0.22202387      -0.29470575
Zr       4.32185172       3.94559191       3.73767926       0.07221512       0.06880244      -0.09582870
Zr       6.49631771       5.92917408       5.61750023      -0.03197948      -0.03529360       0.06367452
6
Lattice="0.106943087 4.119837385 3.790107211 4.53087333 -0.465850752 4.204277982 4.051740166 4.280859648 -0.475252778" Properties=species:S:1:pos:R:3:forces:R:3 generation=8 config_type=C15_aa source_path=/home/myless/Calc_VASP/MRS/job_gen_7-2025-04-10/Zr/Zr6_C15_idx_2920 formula_string=Zr6 composition_str=Zr6 structure_index=2920 date_added_to_db=2025-04-14T00:28:13.572968 structure_id=24392 energy=-48.88321990966797 stress="0.042986321923491146 -0.006936345129322213 0.005504031132096269 -0.006936345129322213 0.049540337169798256 -0.00812663212717378 0.005504031132096269 -0.00812663212717378 0.04420593153121612" calculation_info="_JSON {\"calculation_id\": 24387, \"calculator\": \"vasp\", \"calculation_source_path\": \"/home/myless/Calc_VASP/MRS/job_gen_7-2025-04-10/Zr/Zr6_C15_idx_2920\", \"nbands\": 44, \"parser\": \"ase_outcar\", \"potcar\": \"PAW_PBE Zr_sv 04Jan2005\", \"kpoints\": [9, 8, 8], \"date_run\": \"2025.03.16  01:13:47\", \"vasp_version\": \"vasp.6.4.2 20Jul23\", \"resources_used\": {\"nodes\": 1, \"mpi_ranks\": 4, \"gpus_detected\": true, \"threads_per_rank\": 8}, \"calculation_type\": \"static\"}" parent_id=24392 step=4 variance=0.16278116405010223 loss=0.16278116405010223 pbc="T T T"
Zr       1.06006326       0.96573711       0.91377284       0.28703684       0.37714380       0.19844560
Zr       3.37775441       0.73282311       3.01588210      -0.18339086       0.10336685      -0.10811277
Zr       3.13819182       3.15849111       0.67613904      -0.43501061      -0.25539726       0.30020681
Zr       1.11355254       3.02563443       2.86108388       0.28295574      -0.26520601      -0.35244370
Zr       4.31674323       3.94139283       3.73343346       0.07522269       0.07087746      -0.09691014
Zr       6.49291032       5.92486455       5.61328280      -0.02681386      -0.03078488       0.05881422
6
Lattice="0.106943087 4.119837385 3.790107211 4.53087333 -0.465850752 4.204277982 4.051740166 4.280859648 -0.475252778" Properties=species:S:1:pos:R:3:forces:R:3 generation=8 config_type=C15_aa source_path=/home/myless/Calc_VASP/MRS/job_gen_7-2025-04-10/Zr/Zr6_C15_idx_2920 formula_string=Zr6 composition_str=Zr6 structure_index=2920 date_added_to_db=2025-04-14T00:28:13.572968 structure_id=24392 energy=-48.873704528808595 stress="0.042986321923491146 -0.006936345129322213 0.005504031132096269 -0.006936345129322213 0.049540337169798256 -0.00812663212717378 0.005504031132096269 -0.00812663212717378 0.04420593153121612" calculation_info="_JSON {\"calculation_id\": 24387, \"calculator\": \"vasp\", \"calculation_source_path\": \"/home/myless/Calc_VASP/MRS/job_gen_7-2025-04-10/Zr/Zr6_C15_idx_2920\", \"nbands\": 44, \"parser\": \"ase_outcar\", \"potcar\": \"PAW_PBE Zr_sv 04Jan2005\", \"kpoints\": [9, 8, 8], \"date_run\": \"2025.03.16  01:13:47\", \"vasp_version\": \"vasp.6.4.2 20Jul23\", \"resources_used\": {\"nodes\": 1, \"mpi_ranks\": 4, \"gpus_detected\": true, \"threads_per_rank\": 8}, \"calculation_type\": \"static\"}" parent_id=24392 step=5 variance=0.16930238902568817 loss=0.16930238902568817 pbc="T T T"
Zr       1.05647392       0.96215058       0.91019061       0.32671225       0.42943582       0.22573860
Zr       3.38134215       0.72924761       3.01227822      -0.20841436       0.11726297      -0.12284055
Zr       3.14178570       3.16213166       0.67254656      -0.49553204      -0.29062518       0.34158689
Zr       1.10996960       3.02204018       2.86467794       0.32174468      -0.30176520      -0.40151733
Zr       4.31211005       3.93786109       3.72984904       0.07754012       0.07235241      -0.09732006
Zr       6.49032558       5.92119518       5.60972739      -0.02205068      -0.02666084       0.05435244
6
Lattice="0.106943087 4.119837385 3.790107211 4.53087333 -0.465850752 4.204277982 4.051740166 4.280859648 -0.475252778" Properties=species:S:1:pos:R:3:forces:R:3 generation=8 config_type=C15_aa source_path=/home/myless/Calc_VASP/MRS/job_gen_7-2025-04-10/Zr/Zr6_C15_idx_2920 formula_string=Zr6 composition_str=Zr6 structure_index=2920 date_added_to_db=2025-04-14T00:28:13.572968 structure_id=24392 energy=-48.864480590820314 stress="0.042986321923491146 -0.006936345129322213 0.005504031132096269 -0.006936345129322213 0.049540337169798256 -0.00812663212717378 0.005504031132096269 -0.00812663212717378 0.04420593153121612" calculation_info="_JSON {\"calculation_id\": 24387, \"calculator\": \"vasp\", \"calculation_source_path\": \"/home/myless/Calc_VASP/MRS/job_gen_7-2025-04-10/Zr/Zr6_C15_idx_2920\", \"nbands\": 44, \"parser\": \"ase_outcar\", \"potcar\": \"PAW_PBE Zr_sv 04Jan2005\", \"kpoints\": [9, 8, 8], \"date_run\": \"2025.03.16  01:13:47\", \"vasp_version\": \"vasp.6.4.2 20Jul23\", \"resources_used\": {\"nodes\": 1, \"mpi_ranks\": 4, \"gpus_detected\": true, \"threads_per_rank\": 8}, \"calculation_type\": \"static\"}" parent_id=24392 step=6 variance=0.17620058357715607 loss=0.17620058357715607 pbc="T T T"
Zr       1.05337852       0.95905892       0.90710479       0.36099777       0.47470015       0.24928382
Zr       3.38443538       0.72616964       3.00916429      -0.22988923       0.12915733      -0.13549532
Zr       3.14488684       3.16529231       0.66944749      -0.54800045      -0.32108316       0.37728187
Zr       1.10688277       3.01893904       2.86777843       0.35513020      -0.33331847      -0.44405073
Zr       4.30779910       3.93483452       3.72676545       0.07933790       0.07337371      -0.09721877
Zr       6.48837485       5.91800230       5.60667030      -0.01757624      -0.02282953       0.05019912
6
Lattice="0.106943087 4.119837385 3.790107211 4.53087333 -0.465850752 4.204277982 4.051740166 4.280859648 -0.475252778" Properties=species:S:1:pos:R:3:forces:R:3 generation=8 config_type=C15_aa source_path=/home/myless/Calc_VASP/MRS/job_gen_7-2025-04-10/Zr/Zr6_C15_idx_2920 formula_string=Zr6 composition_str=Zr6 structure_index=2920 date_added_to_db=2025-04-14T00:28:13.572968 structure_id=24392 energy=-48.85564422607422 stress="0.042986321923491146 -0.006936345129322213 0.005504031132096269 -0.006936345129322213 0.049540337169798256 -0.00812663212717378 0.005504031132096269 -0.00812663212717378 0.04420593153121612" calculation_info="_JSON {\"calculation_id\": 24387, \"calculator\": \"vasp\", \"calculation_source_path\": \"/home/myless/Calc_VASP/MRS/job_gen_7-2025-04-10/Zr/Zr6_C15_idx_2920\", \"nbands\": 44, \"parser\": \"ase_outcar\", \"potcar\": \"PAW_PBE Zr_sv 04Jan2005\", \"kpoints\": [9, 8, 8], \"date_run\": \"2025.03.16  01:13:47\", \"vasp_version\": \"vasp.6.4.2 20Jul23\", \"resources_used\": {\"nodes\": 1, \"mpi_ranks\": 4, \"gpus_detected\": true, \"threads_per_rank\": 8}, \"calculation_type\": \"static\"}" parent_id=24392 step=7 variance=0.18341147899627686 loss=0.18341147899627686 pbc="T T T"
Zr       1.05067323       0.95635835       0.90441184       0.39101911       0.51440823       0.26986638
Zr       3.38713823       0.72348531       3.00643658      -0.24854437       0.13947579      -0.14651883
Zr       3.14759911       3.16807717       0.66673805      -0.59410363      -0.34777394       0.40847239
Zr       1.10418848       3.01622690       2.87048885       0.38422874      -0.36091164      -0.48140210
Zr       4.30370923       3.93221138       3.72408129       0.08070780       0.07401890      -0.09669484
Zr       6.48695554       5.91518387       5.60400711      -0.01330772      -0.01921737       0.04627704
6
Lattice="0.106943087 4.119837385 3.790107211 4.53087333 -0.465850752 4.204277982 4.051740166 4.280859648 -0.475252778" Properties=species:S:1:pos:R:3:forces:R:3 generation=8 config_type=C15_aa source_path=/home/myless/Calc_VASP/MRS/job_gen_7-2025-04-10/Zr/Zr6_C15_idx_2920 formula_string=Zr6 composition_str=Zr6 structure_index=2920 date_added_to_db=2025-04-14T00:28:13.572968 structure_id=24392 energy=-48.8472396850586 stress="0.042986321923491146 -0.006936345129322213 0.005504031132096269 -0.006936345129322213 0.049540337169798256 -0.00812663212717378 0.005504031132096269 -0.00812663212717378 0.04420593153121612" calculation_info="_JSON {\"calculation_id\": 24387, \"calculator\": \"vasp\", \"calculation_source_path\": \"/home/myless/Calc_VASP/MRS/job_gen_7-2025-04-10/Zr/Zr6_C15_idx_2920\", \"nbands\": 44, \"parser\": \"ase_outcar\", \"potcar\": \"PAW_PBE Zr_sv 04Jan2005\", \"kpoints\": [9, 8, 8], \"date_run\": \"2025.03.16  01:13:47\", \"vasp_version\": \"vasp.6.4.2 20Jul23\", \"resources_used\": {\"nodes\": 1, \"mpi_ranks\": 4, \"gpus_detected\": true, \"threads_per_rank\": 8}, \"calculation_type\": \"static\"}" parent_id=24392 step=8 variance=0.19081825017929077 loss=0.19081825017929077 pbc="T T T"
Zr       1.04828597       0.95397702       0.90203986       0.41755328       0.54958081       0.28803122
Zr       3.38952279       0.72112233       3.00402306      -0.26488128       0.14852358      -0.15619786
Zr       3.14999429       3.17055738       0.66434638      -0.63501328      -0.37140161       0.43597096
Zr       1.10181538       3.01383208       2.87288117       0.40980926      -0.38526988      -0.51452541
Zr       4.29977761       3.92992050       3.72172693       0.08172884       0.07435107      -0.09582098
Zr       6.48598194       5.91266980       5.60166338      -0.00919689      -0.01578389       0.04254208
6
Lattice="0.106943087 4.119837385 3.790107211 4.53087333 -0.465850752 4.204277982 4.051740166 4.280859648 -0.475252778" Properties=species:S:1:pos:R:3:forces:R:3 generation=8 config_type=C15_aa source_path=/home/myless/Calc_VASP/MRS/job_gen_7-2025-04-10/Zr/Zr6_C15_idx_2920 formula_string=Zr6 composition_str=Zr6 structure_index=2920 date_added_to_db=2025-04-14T00:28:13.572968 structure_id=24392 energy=-48.8392837524414 stress="0.042986321923491146 -0.006936345129322213 0.005504031132096269 -0.006936345129322213 0.049540337169798256 -0.00812663212717378 0.005504031132096269 -0.00812663212717378 0.04420593153121612" calculation_info="_JSON {\"calculation_id\": 24387, \"calculator\": \"vasp\", \"calculation_source_path\": \"/home/myless/Calc_VASP/MRS/job_gen_7-2025-04-10/Zr/Zr6_C15_idx_2920\", \"nbands\": 44, \"parser\": \"ase_outcar\", \"potcar\": \"PAW_PBE Zr_sv 04Jan2005\", \"kpoints\": [9, 8, 8], \"date_run\": \"2025.03.16  01:13:47\", \"vasp_version\": \"vasp.6.4.2 20Jul23\", \"resources_used\": {\"nodes\": 1, \"mpi_ranks\": 4, \"gpus_detected\": true, \"threads_per_rank\": 8}, \"calculation_type\": \"static\"}" parent_id=24392 step=9 variance=0.19827131927013397 loss=0.19827131927013397 pbc="T T T"
Zr       1.04616395       0.95186205       0.89993629       0.44117016       0.58096564       0.30417413
Zr       3.39164202       0.71902739       3.00187108      -0.27928546       0.15652172      -0.16476527
Zr       3.15212476       3.17278490       0.66222020      -0.67158234      -0.39248160       0.46037427
Zr       1.09971097       3.01170169       2.87500720       0.43243748      -0.40691537      -0.54410118
Zr       4.29595270       3.92791149       3.71965125       0.08246519       0.07441360      -0.09464068
Zr       6.48538352       5.91040745       5.59958394      -0.00520502      -0.01250398       0.03895884
6
Lattice="0.106943087 4.119837385 3.790107211 4.53087333 -0.465850752 4.204277982 4.051740166 4.280859648 -0.475252778" Properties=species:S:1:pos:R:3:forces:R:3 generation=8 config_type=C15_aa source_path=/home/myless/Calc_VASP/MRS/job_gen_7-2025-04-10/Zr/Zr6_C15_idx_2920 formula_string=Zr6 composition_str=Zr6 structure_index=2920 date_added_to_db=2025-04-14T00:28:13.572968 structure_id=24392 energy=-48.831781005859376 stress="0.042986321923491146 -0.006936345129322213 0.005504031132096269 -0.006936345129322213 0.049540337169798256 -0.00812663212717378 0.005504031132096269 -0.00812663212717378 0.04420593153121612" calculation_info="_JSON {\"calculation_id\": 24387, \"calculator\": \"vasp\", \"calculation_source_path\": \"/home/myless/Calc_VASP/MRS/job_gen_7-2025-04-10/Zr/Zr6_C15_idx_2920\", \"nbands\": 44, \"parser\": \"ase_outcar\", \"potcar\": \"PAW_PBE Zr_sv 04Jan2005\", \"kpoints\": [9, 8, 8], \"date_run\": \"2025.03.16  01:13:47\", \"vasp_version\": \"vasp.6.4.2 20Jul23\", \"resources_used\": {\"nodes\": 1, \"mpi_ranks\": 4, \"gpus_detected\": true, \"threads_per_rank\": 8}, \"calculation_type\": \"static\"}" parent_id=24392 step=10 variance=0.205549418926239 loss=0.205549418926239 pbc="T T T"
Zr       1.04426725       0.94997345       0.89806112       0.46229959       0.60912192       0.31859452
Zr       3.39353609       0.71715984       2.99994088      -0.29204395       0.16363715      -0.17238267
Zr       3.15403039       3.17479739       0.66031992      -0.70445311      -0.41139731       0.48213974
Zr       1.09783579       3.00979604       2.87690683       0.45254984      -0.42625397      -0.57065171
Zr       4.29220927       3.92614654       3.71781616       0.08296210       0.07424753      -0.09319900
Zr       6.48510756       5.90835642       5.59772666      -0.00131448      -0.00935533       0.03549908
6
Lattice="0.106943087 4.119837385 3.790107211 4.53087333 -0.465850752 4.204277982 4.051740166 4.280859648 -0.475252778" Properties=species:S:1:pos:R:3:forces:R:3 generation=8 config_type=C15_aa source_path=/home/myless/Calc_VASP/MRS/job_gen_7-2025-04-10/Zr/Zr6_C15_idx_2920 formula_string=Zr6 composition_str=Zr6 structure_index=2920 date_added_to_db=2025-04-14T00:28:13.572968 structure_id=24392 energy=-48.82472686767578 stress="0.042986321923491146 -0.006936345129322213 0.005504031132096269 -0.006936345129322213 0.049540337169798256 -0.00812663212717378 0.005504031132096269 -0.00812663212717378 0.04420593153121612" calculation_info="_JSON {\"calculation_id\": 24387, \"calculator\": \"vasp\", \"calculation_source_path\": \"/home/myless/Calc_VASP/MRS/job_gen_7-2025-04-10/Zr/Zr6_C15_idx_2920\", \"nbands\": 44, \"parser\": \"ase_outcar\", \"potcar\": \"PAW_PBE Zr_sv 04Jan2005\", \"kpoints\": [9, 8, 8], \"date_run\": \"2025.03.16  01:13:47\", \"vasp_version\": \"vasp.6.4.2 20Jul23\", \"resources_used\": {\"nodes\": 1, \"mpi_ranks\": 4, \"gpus_detected\": true, \"threads_per_rank\": 8}, \"calculation_type\": \"static\"}" parent_id=24392 step=11 variance=0.2123451977968216 loss=0.2123451977968216 pbc="T T T"
Zr       1.04256415       0.94827973       0.89638260       0.48127490       0.63449049       0.33153573
Zr       3.39523644       0.71548737       2.99820132      -0.30338705       0.17000422      -0.17917730
Zr       3.15574228       3.17662290       0.65861472      -0.73411912      -0.42844272       0.50161564
Zr       1.09615891       3.00808406       2.87861108       0.47047567      -0.44360271      -0.59458518
Zr       4.28852958       3.92459792       3.71619172       0.08326805       0.07387997      -0.09153012
Zr       6.48510748       5.90648675       5.59605797       0.00248748      -0.00632923       0.03214134
6
Lattice="0.106943087 4.119837385 3.790107211 4.53087333 -0.465850752 4.204277982 4.051740166 4.280859648 -0.475252778" Properties=species:S:1:pos:R:3:forces:R:3 generation=8 config_type=C15_aa source_path=/home/myless/Calc_VASP/MRS/job_gen_7-2025-04-10/Zr/Zr6_C15_idx_2920 formula_string=Zr6 composition_str=Zr6 structure_index=2920 date_added_to_db=2025-04-14T00:28:13.572968 structure_id=24392 energy=-48.818118286132815 stress="0.042986321923491146 -0.006936345129322213 0.005504031132096269 -0.006936345129322213 0.049540337169798256 -0.00812663212717378 0.005504031132096269 -0.00812663212717378 0.04420593153121612" calculation_info="_JSON {\"calculation_id\": 24387, \"calculator\": \"vasp\", \"calculation_source_path\": \"/home/myless/Calc_VASP/MRS/job_gen_7-2025-04-10/Zr/Zr6_C15_idx_2920\", \"nbands\": 44, \"parser\": \"ase_outcar\", \"potcar\": \"PAW_PBE Zr_sv 04Jan2005\", \"kpoints\": [9, 8, 8], \"date_run\": \"2025.03.16  01:13:47\", \"vasp_version\": \"vasp.6.4.2 20Jul23\", \"resources_used\": {\"nodes\": 1, \"mpi_ranks\": 4, \"gpus_detected\": true, \"threads_per_rank\": 8}, \"calculation_type\": \"static\"}" parent_id=24392 step=12 variance=0.21824580430984497 loss=0.21824580430984497 pbc="T T T"
Zr       1.04102938       0.94675531       0.89487499       0.49836010       0.65742064       0.34318846
Zr       3.39676780       0.71398382       2.99662777      -0.31350487       0.17572384      -0.18525545
Zr       3.15728493       3.17828017       0.65708022      -0.76097071      -0.44385415       0.51908398
Zr       1.09465545       3.00654069       2.88014461       0.48649663      -0.45920897      -0.61622369
Zr       4.28492374       3.92324287       3.71475330       0.08343246       0.07335190      -0.08967841
Zr       6.48532867       5.90477385       5.59454995       0.00618635      -0.00343336       0.02888509
6
Lattice="0.106943087 4.119837385 3.790107211 4.53087333 -0.465850752 4.204277982 4.051740166 4.280859648 -0.475252778" Properties=species:S:1:pos:R:3:forces:R:3 generation=8 config_type=C15_aa source_path=/home/myless/Calc_VASP/MRS/job_gen_7-2025-04-10/Zr/Zr6_C15_idx_2920 formula_string=Zr6 composition_str=Zr6 structure_index=2920 date_added_to_db=2025-04-14T00:28:13.572968 structure_id=24392 energy=-48.811947631835935 stress="0.042986321923491146 -0.006936345129322213 0.005504031132096269 -0.006936345129322213 0.049540337169798256 -0.00812663212717378 0.005504031132096269 -0.00812663212717378 0.04420593153121612" calculation_info="_JSON {\"calculation_id\": 24387, \"calculator\": \"vasp\", \"calculation_source_path\": \"/home/myless/Calc_VASP/MRS/job_gen_7-2025-04-10/Zr/Zr6_C15_idx_2920\", \"nbands\": 44, \"parser\": \"ase_outcar\", \"potcar\": \"PAW_PBE Zr_sv 04Jan2005\", \"kpoints\": [9, 8, 8], \"date_run\": \"2025.03.16  01:13:47\", \"vasp_version\": \"vasp.6.4.2 20Jul23\", \"resources_used\": {\"nodes\": 1, \"mpi_ranks\": 4, \"gpus_detected\": true, \"threads_per_rank\": 8}, \"calculation_type\": \"static\"}" parent_id=24392 step=13 variance=0.22284932434558868 loss=0.22284932434558868 pbc="T T T"
Zr       1.03964215       0.94537914       0.89351680       0.51376963       0.67819405       0.35371575
Zr       3.39815073       0.71262773       2.99520047      -0.32256275       0.18088138      -0.19069943
Zr       3.15867844       3.17978282       0.65569691      -0.78531063      -0.45780197       0.53478217
Zr       1.09330509       3.00514615       2.88152860       0.50084078      -0.47329408      -0.63583338
Zr       4.28141293       3.92206442       3.71347991       0.08350507       0.07270302      -0.08769806
Zr       6.48571578       5.90319875       5.59317866       0.00975792      -0.00068230       0.02573293
6
Lattice="0.106943087 4.119837385 3.790107211 4.53087333 -0.465850752 4.204277982 4.051740166 4.280859648 -0.475252778" Properties=species:S:1:pos:R:3:forces:R:3 generation=8 config_type=C15_aa source_path=/home/myless/Calc_VASP/MRS/job_gen_7-2025-04-10/Zr/Zr6_C15_idx_2920 formula_string=Zr6 composition_str=Zr6 structure_index=2920 date_added_to_db=2025-04-14T00:28:13.572968 structure_id=24392 energy=-48.80620422363281 stress="0.042986321923491146 -0.006936345129322213 0.005504031132096269 -0.006936345129322213 0.049540337169798256 -0.00812663212717378 0.005504031132096269 -0.00812663212717378 0.04420593153121612" calculation_info="_JSON {\"calculation_id\": 24387, \"calculator\": \"vasp\", \"calculation_source_path\": \"/home/myless/Calc_VASP/MRS/job_gen_7-2025-04-10/Zr/Zr6_C15_idx_2920\", \"nbands\": 44, \"parser\": \"ase_outcar\", \"potcar\": \"PAW_PBE Zr_sv 04Jan2005\", \"kpoints\": [9, 8, 8], \"date_run\": \"2025.03.16  01:13:47\", \"vasp_version\": \"vasp.6.4.2 20Jul23\", \"resources_used\": {\"nodes\": 1, \"mpi_ranks\": 4, \"gpus_detected\": true, \"threads_per_rank\": 8}, \"calculation_type\": \"static\"}" parent_id=24392 step=14 variance=0.2258896827697754 loss=0.2258896827697754 pbc="T T T"
Zr       1.03838534       0.94413373       0.89228966       0.52768421       0.69703698       0.36324331
Zr       3.39940154       0.71140110       2.99390346      -0.33070126       0.18554673      -0.19558373
Zr       3.15993942       3.18113869       0.65444883      -0.80739421      -0.47043657       0.54890746
Zr       1.09209057       3.00388412       2.88278027       0.51371044      -0.48602024      -0.65363300
Zr       4.27803789       3.92104792       3.71235285       0.08354124       0.07198261      -0.08564295
Zr       6.48620444       5.90174504       5.59192424       0.01315955       0.00189044       0.02270883
6