6
Lattice="-0.043394112 3.858732184 4.011499653 3.899091738 -0.059518916 4.054490961 3.926558929 4.049953748 0.402390163" Properties=species:S:1:pos:R:3:forces:R:3 generation=6 composition=W6 config_type=C15 source_path=V-Cr-Ti-W-Zr/Fixed_Engrads/vcrtiwzr_fin_engrads/job_gen_6-2024-12-23/W/W6_C15_idx_3104 date_processed=2025-02-12T16:53:59.228932 structure_index=3104 structure_id=21754 energy=-72.56463 stress="0.20388589857021586 0.005816562218556622 0.020657210678479525 0.005816562218556622 0.2099569333573439 0.00582378364461527 0.020657210678479525 0.00582378364461527 0.20308242285893183" calculation_info="_JSON {\"calculation_id\": 21753, \"calculator\": \"vasp\", \"calculation_source_path\": \"\", \"error\": null, \"status\": \"completed\", \"gpu_count\": null, \"parameters\": {}, \"date_started\": null, \"gpu_memory_mb\": null, \"model_version\": null, \"date_completed\": null, \"runtime_seconds\": null}" pbc="T T T"
W        0.97278000       0.98115000       1.05855000       0.00000000       0.00000000       0.00000000
W        2.92233000       0.95139000       3.08579000       0.00000000       0.00000000       0.00000000
W        2.93606000       3.00612000       1.25974000       0.00000000       0.00000000       0.00000000
W        0.95109000       2.91051000       3.06430000       0.00000000       0.00000000       0.00000000
W        3.89113000       3.92458000       4.23419000       0.00232700       0.00155500      -0.00462900
W        5.83669000       5.88688000       6.35129000      -0.00232700      -0.00155500       0.00462900
6
Lattice="-0.043394112 3.858732184 4.011499653 3.899091738 -0.059518916 4.054490961 3.926558929 4.049953748 0.402390163" Properties=species:S:1:pos:R:3:forces:R:3 generation=8 composition=W6 config_type=C15_aa source_path=V-Cr-Ti-W-Zr/Fixed_Engrads/vcrtiwzr_fin_engrads/job_gen_6-2024-12-23/W/W6_C15_idx_3104 date_processed=2025-02-12T16:53:59.228932 structure_index=3104 structure_id=21754 energy=-72.585400390625 stress="0.20388589857021586 0.005816562218556622 0.020657210678479525 0.005816562218556622 0.2099569333573439 0.00582378364461527 0.020657210678479525 0.00582378364461527 0.20308242285893183" calculation_info="_JSON {\"calculation_id\": 21753, \"calculator\": \"vasp\", \"calculation_source_path\": \"\", \"error\": null, \"status\": \"completed\", \"gpu_count\": null, \"parameters\": {}, \"date_started\": null, \"gpu_memory_mb\": null, \"model_version\": null, \"date_completed\": null, \"runtime_seconds\": null}" parent_id=21754 step=0 variance=0.25575748085975647 loss=0.25575748085975647 pbc="T T T"
W        0.97278000       0.98115000       1.05855000      -0.00001610      -0.00004375      -0.00002430
W        2.92233000       0.95139000       3.08579000       0.00001978      -0.00005012       0.00004067
W        2.93606000       3.00612000       1.25974000       0.00002590       0.00005164      -0.00000325
W        0.95109000       2.91051000       3.06430000      -0.00004248       0.00004056       0.00001047
W        3.89113000       3.92458000       4.23419000      -0.00357780      -0.00999138      -0.02349307
W        5.83669000       5.88688000       6.35129000       0.00359076       0.00999310       0.02346949
6
Lattice="-0.043394112 3.858732184 4.011499653 3.899091738 -0.059518916 4.054490961 3.926558929 4.049953748 0.402390163" Properties=species:S:1:pos:R:3:forces:R:3 generation=8 composition=W6 config_type=C15_aa source_path=V-Cr-Ti-W-Zr/Fixed_Engrads/vcrtiwzr_fin_engrads/job_gen_6-2024-12-23/W/W6_C15_idx_3104 date_processed=2025-02-12T16:53:59.228932 structure_index=3104 structure_id=21754 energy=-72.58467254638671 stress="0.20388589857021586 0.005816562218556622 0.020657210678479525 0.005816562218556622 0.2099569333573439 0.00582378364461527 0.020657210678479525 0.00582378364461527 0.20308242285893183" calculation_info="_JSON {\"calculation_id\": 21753, \"calculator\": \"vasp\", \"calculation_source_path\": \"\", \"error\": null, \"status\": \"completed\", \"gpu_count\": null, \"parameters\": {}, \"date_started\": null, \"gpu_memory_mb\": null, \"model_version\": null, \"date_completed\": null, \"runtime_seconds\": null}" parent_id=21754 step=1 variance=0.19351668655872345 loss=0.19351668655872345 pbc="T T T"
W        0.98278000       0.99115000       1.06855000       0.00654714       0.00515781      -0.02147584
W        2.93233000       0.96139000       3.09579000       0.00670679      -0.00410949      -0.02341600
W        2.94606000       3.01612000       1.26974000      -0.00631691      -0.00760580      -0.02758129
W        0.96109000       2.92051000       3.07430000      -0.00524076       0.00723069      -0.02565643
W        3.90113000       3.93458000       4.22419000      -0.00162117      -0.01099336       0.09609535
W        5.84669000       5.89688000       6.36129000      -0.00007498       0.01032010       0.00203424
6
Lattice="-0.043394112 3.858732184 4.011499653 3.899091738 -0.059518916 4.054490961 3.926558929 4.049953748 0.402390163" Properties=species:S:1:pos:R:3:forces:R:3 generation=8 composition=W6 config_type=C15_aa source_path=V-Cr-Ti-W-Zr/Fixed_Engrads/vcrtiwzr_fin_engrads/job_gen_6-2024-12-23/W/W6_C15_idx_3104 date_processed=2025-02-12T16:53:59.228932 structure_index=3104 structure_id=21754 energy=-72.5845230102539 stress="0.20388589857021586 0.005816562218556622 0.020657210678479525 0.005816562218556622 0.2099569333573439 0.00582378364461527 0.020657210678479525 0.00582378364461527 0.20308242285893183" calculation_info="_JSON {\"calculation_id\": 21753, \"calculator\": \"vasp\", \"calculation_source_path\": \"\", \"error\": null, \"status\": \"completed\", \"gpu_count\": null, \"parameters\": {}, \"date_started\": null, \"gpu_memory_mb\": null, \"model_version\": null, \"date_completed\": null, \"runtime_seconds\": null}" parent_id=21754 step=2 variance=0.19631589949131012 loss=0.19631589949131012 pbc="T T T"
W        0.98960932       0.99786031       1.07529321       0.00526983       0.00598513      -0.02430785
W        2.93905811       0.96802816       3.10248919       0.00658166      -0.00382857      -0.02559905
W        2.95277685       3.02280143       1.27643845      -0.00802656      -0.00758362      -0.03059372
W        0.96778465       2.92722628       3.08102161      -0.00633577       0.00805269      -0.02896816
W        3.90789708       3.94111215       4.22940317      -0.00264934      -0.00976167       0.10387556
W        5.85250275       5.90407883       6.36715147       0.00516017       0.00713610       0.00559324
6
Lattice="-0.043394112 3.858732184 4.011499653 3.899091738 -0.059518916 4.054490961 3.926558929 4.049953748 0.402390163" Properties=species:S:1:pos:R:3:forces:R:3 generation=8 composition=W6 config_type=C15_aa source_path=V-Cr-Ti-W-Zr/Fixed_Engrads/vcrtiwzr_fin_engrads/job_gen_6-2024-12-23/W/W6_C15_idx_3104 date_processed=2025-02-12T16:53:59.228932 structure_index=3104 structure_id=21754 energy=-72.58470306396484 stress="0.20388589857021586 0.005816562218556622 0.020657210678479525 0.005816562218556622 0.2099569333573439 0.00582378364461527 0.020657210678479525 0.00582378364461527 0.20308242285893183" calculation_info="_JSON {\"calculation_id\": 21753, \"calculator\": \"vasp\", \"calculation_source_path\": \"\", \"error\": null, \"status\": \"completed\", \"gpu_count\": null, \"parameters\": {}, \"date_started\": null, \"gpu_memory_mb\": null, \"model_version\": null, \"date_completed\": null, \"runtime_seconds\": null}" parent_id=21754 step=3 variance=0.20131416618824005 loss=0.20131416618824005 pbc="T T T"
W        0.99496262       1.00309724       1.08052816       0.00244352       0.00554881      -0.02398724
W        2.94427596       0.97311219       3.10766634       0.00529848      -0.00245365      -0.02399192
W        2.95794188       3.02795437       1.28161326      -0.00822210      -0.00601364      -0.02907743
W        0.97295094       2.93244071       3.08620541      -0.00657897       0.00773479      -0.02793294
W        3.91308927       3.94607714       4.23656327      -0.00372069      -0.00795344       0.09062970
W        5.85683281       5.90987221       6.37122576       0.01077984       0.00313719       0.01435979
6
Lattice="-0.043394112 3.858732184 4.011499653 3.899091738 -0.059518916 4.054490961 3.926558929 4.049953748 0.402390163" Properties=species:S:1:pos:R:3:forces:R:3 generation=8 composition=W6 config_type=C15_aa source_path=V-Cr-Ti-W-Zr/Fixed_Engrads/vcrtiwzr_fin_engrads/job_gen_6-2024-12-23/W/W6_C15_idx_3104 date_processed=2025-02-12T16:53:59.228932 structure_index=3104 structure_id=21754 energy=-72.58498840332031 stress="0.20388589857021586 0.005816562218556622 0.020657210678479525 0.005816562218556622 0.2099569333573439 0.00582378364461527 0.020657210678479525 0.00582378364461527 0.20308242285893183" calculation_info="_JSON {\"calculation_id\": 21753, \"calculator\": \"vasp\", \"calculation_source_path\": \"\", \"error\": null, \"status\": \"completed\", \"gpu_count\": null, \"parameters\": {}, \"date_started\": null, \"gpu_memory_mb\": null, \"model_version\": null, \"date_completed\": null, \"runtime_seconds\": null}" parent_id=21754 step=4 variance=0.20803116261959076 loss=0.20803116261959076 pbc="T T T"
W        0.99939822       1.00755983       1.08471160      -0.00104322       0.00271210      -0.02090317
W        2.94856828       0.97724828       3.11189800       0.00303754      -0.00055608      -0.01995875
W        2.96208693       3.03217280       1.28584327      -0.00569332      -0.00359387      -0.02475614
W        0.97716967       2.93678404       3.09031916      -0.00627898       0.00590935      -0.02232794
W        3.91715861       3.95016292       4.24435266      -0.00336467      -0.00647055       0.06860773
W        5.86074044       5.91430421       6.37518678       0.01334267       0.00199902       0.01933827
6
Lattice="-0.043394112 3.858732184 4.011499653 3.899091738 -0.059518916 4.054490961 3.926558929 4.049953748 0.402390163" Properties=species:S:1:pos:R:3:forces:R:3 generation=8 composition=W6 config_type=C15_aa source_path=V-Cr-Ti-W-Zr/Fixed_Engrads/vcrtiwzr_fin_engrads/job_gen_6-2024-12-23/W/W6_C15_idx_3104 date_processed=2025-02-12T16:53:59.228932 structure_index=3104 structure_id=21754 energy=-72.5852783203125 stress="0.20388589857021586 0.005816562218556622 0.020657210678479525 0.005816562218556622 0.2099569333573439 0.00582378364461527 0.020657210678479525 0.00582378364461527 0.20308242285893183" calculation_info="_JSON {\"calculation_id\": 21753, \"calculator\": \"vasp\", \"calculation_source_path\": \"\", \"error\": null, \"status\": \"completed\", \"gpu_count\": null, \"parameters\": {}, \"date_started\": null, \"gpu_memory_mb\": null, \"model_version\": null, \"date_completed\": null, \"runtime_seconds\": null}" parent_id=21754 step=5 variance=0.24826665222644806 loss=0.24826665222644806 pbc="T T T"
W        1.00320631       1.01156415       1.08801205      -0.00513259      -0.00287543      -0.01443886
W        2.95222036       0.98071463       3.11545528      -0.00048456       0.00188670      -0.01363650
W        2.96545101       3.03572993       1.28940359       0.00033726      -0.00022723      -0.01792642
W        0.98071763       2.94056623       3.09357533      -0.00558882       0.00211536      -0.01152471
W        3.92028276       3.95363135       4.25251566      -0.00064660      -0.00519791       0.04138900
W        5.86468354       5.91758836       6.37990142       0.01151528       0.00429842       0.01613757
6
Lattice="-0.043394112 3.858732184 4.011499653 3.899091738 -0.059518916 4.054490961 3.926558929 4.049953748 0.402390163" Properties=species:S:1:pos:R:3:forces:R:3 generation=8 composition=W6 config_type=C15_aa source_path=V-Cr-Ti-W-Zr/Fixed_Engrads/vcrtiwzr_fin_engrads/job_gen_6-2024-12-23/W/W6_C15_idx_3104 date_processed=2025-02-12T16:53:59.228932 structure_index=3104 structure_id=21754 energy=-72.58544464111328 stress="0.20388589857021586 0.005816562218556622 0.020657210678479525 0.005816562218556622 0.2099569333573439 0.00582378364461527 0.020657210678479525 0.00582378364461527 0.20308242285893183" calculation_info="_JSON {\"calculation_id\": 21753, \"calculator\": \"vasp\", \"calculation_source_path\": \"\", \"error\": null, \"status\": \"completed\", \"gpu_count\": null, \"parameters\": {}, \"date_started\": null, \"gpu_memory_mb\": null, \"model_version\": null, \"date_completed\": null, \"runtime_seconds\": null}" parent_id=21754 step=6 variance=0.31524235010147095 loss=0.31524235010147095 pbc="T T T"
W        1.00656913       1.01513226       1.09056367      -0.00945771      -0.00903875      -0.00407104
W        2.95540305       0.98367165       3.11849696      -0.00549478       0.00497222      -0.00576421
W        2.96827630       3.03877714       1.29245297       0.00765649       0.00362082      -0.00868825
W        0.98374853       2.94399934       3.09633607      -0.00375874      -0.00445161       0.00109386
W        3.92283009       3.95658798       4.26119125       0.00299272      -0.00378861       0.00855640
W        5.86842959       5.92007191       6.38490002       0.00806208       0.00868600       0.00887328
6
Lattice="-0.043394112 3.858732184 4.011499653 3.899091738 -0.059518916 4.054490961 3.926558929 4.049953748 0.402390163" Properties=species:S:1:pos:R:3:forces:R:3 generation=8 composition=W6 config_type=C15_aa source_path=V-Cr-Ti-W-Zr/Fixed_Engrads/vcrtiwzr_fin_engrads/job_gen_6-2024-12-23/W/W6_C15_idx_3104 date_processed=2025-02-12T16:53:59.228932 structure_index=3104 structure_id=21754 energy=-72.58537445068359 stress="0.20388589857021586 0.005816562218556622 0.020657210678479525 0.005816562218556622 0.2099569333573439 0.00582378364461527 0.020657210678479525 0.00582378364461527 0.20308242285893183" calculation_info="_JSON {\"calculation_id\": 21753, \"calculator\": \"vasp\", \"calculation_source_path\": \"\", \"error\": null, \"status\": \"completed\", \"gpu_count\": null, \"parameters\": {}, \"date_started\": null, \"gpu_memory_mb\": null, \"model_version\": null, \"date_completed\": null, \"runtime_seconds\": null}" parent_id=21754 step=7 variance=0.2700461447238922 loss=0.2700461447238922 pbc="T T T"
W        1.00963418       1.01868311       1.09331304      -0.01496979      -0.01854399       0.00063004
W        2.95818057       0.98627892       3.12114103      -0.00754391       0.00713643       0.00361300
W        2.97123623       3.04144865       1.29506922       0.01013077       0.00788186       0.00346525
W        0.98630645       2.94673577       3.09900100       0.00160852      -0.00618802       0.01156707
W        3.92561608       3.95891380       4.27029361       0.00274368      -0.00078447      -0.02941442
W        5.87141862       5.92252264       6.38844424       0.00803078       0.01049832       0.01013903
6
Lattice="-0.043394112 3.858732184 4.011499653 3.899091738 -0.059518916 4.054490961 3.926558929 4.049953748 0.402390163" Properties=species:S:1:pos:R:3:forces:R:3 generation=8 composition=W6 config_type=C15_aa source_path=V-Cr-Ti-W-Zr/Fixed_Engrads/vcrtiwzr_fin_engrads/job_gen_6-2024-12-23/W/W6_C15_idx_3104 date_processed=2025-02-12T16:53:59.228932 structure_index=3104 structure_id=21754 energy=-72.58538513183593 stress="0.20388589857021586 0.005816562218556622 0.020657210678479525 0.005816562218556622 0.2099569333573439 0.00582378364461527 0.020657210678479525 0.00582378364461527 0.20308242285893183" calculation_info="_JSON {\"calculation_id\": 21753, \"calculator\": \"vasp\", \"calculation_source_path\": \"\", \"error\": null, \"status\": \"completed\", \"gpu_count\": null, \"parameters\": {}, \"date_started\": null, \"gpu_memory_mb\": null, \"model_version\": null, \"date_completed\": null, \"runtime_seconds\": null}" parent_id=21754 step=8 variance=0.28192174434661865 loss=0.28192174434661865 pbc="T T T"
W        1.01236862       1.02179908       1.09592777      -0.01863481      -0.02520445      -0.00307191
W        2.96060767       0.98861439       3.12347635      -0.00654013       0.00725222       0.00533756
W        2.97390272       3.04379902       1.29738077       0.00916018       0.00975827       0.00633486
W        0.98857087       2.94906591       3.10151005       0.00476646      -0.00427384       0.01171731
W        3.92838212       3.96100419       4.27167320       0.00102669       0.00121107      -0.02221550
W        5.87351659       5.92481132       6.39203730       0.01022170       0.01125665       0.00189783
6
Lattice="-0.043394112 3.858732184 4.011499653 3.899091738 -0.059518916 4.054490961 3.926558929 4.049953748 0.402390163" Properties=species:S:1:pos:R:3:forces:R:3 generation=8 composition=W6 config_type=C15_aa source_path=V-Cr-Ti-W-Zr/Fixed_Engrads/vcrtiwzr_fin_engrads/job_gen_6-2024-12-23/W/W6_C15_idx_3104 date_processed=2025-02-12T16:53:59.228932 structure_index=3104 structure_id=21754 energy=-72.58540191650391 stress="0.20388589857021586 0.005816562218556622 0.020657210678479525 0.005816562218556622 0.2099569333573439 0.00582378364461527 0.020657210678479525 0.00582378364461527 0.20308242285893183" calculation_info="_JSON {\"calculation_id\": 21753, \"calculator\": \"vasp\", \"calculation_source_path\": \"\", \"error\": null, \"status\": \"completed\", \"gpu_count\": null, \"parameters\": {}, \"date_started\": null, \"gpu_memory_mb\": null, \"model_version\": null, \"date_completed\": null, \"runtime_seconds\": null}" parent_id=21754 step=9 variance=0.311358243227005 loss=0.311358243227005 pbc="T T T"
W        1.01475309       1.02451357       1.09863182      -0.02037039      -0.03002091      -0.01311431
W        2.96271167       0.99074448       3.12556717      -0.00188775       0.00588001       0.00306742
W        2.97629722       3.04588050       1.29944649       0.00652470       0.01018996       0.00437836
W        0.99059123       2.95100467       3.10400870       0.00751670       0.00114659       0.00549032
W        3.93107534       3.96290337       4.26958145      -0.00141513       0.00245985       0.00429513
W        5.87574242       5.92708096       6.39457191       0.00963168       0.01034454      -0.00411689
6
Lattice="-0.043394112 3.858732184 4.011499653 3.899091738 -0.059518916 4.054490961 3.926558929 4.049953748 0.402390163" Properties=species:S:1:pos:R:3:forces:R:3 generation=8 composition=W6 config_type=C15_aa source_path=V-Cr-Ti-W-Zr/Fixed_Engrads/vcrtiwzr_fin_engrads/job_gen_6-2024-12-23/W/W6_C15_idx_3104 date_processed=2025-02-12T16:53:59.228932 structure_index=3104 structure_id=21754 energy=-72.58533630371093 stress="0.20388589857021586 0.005816562218556622 0.020657210678479525 0.005816562218556622 0.2099569333573439 0.00582378364461527 0.020657210678479525 0.00582378364461527 0.20308242285893183" calculation_info="_JSON {\"calculation_id\": 21753, \"calculator\": \"vasp\", \"calculation_source_path\": \"\", \"error\": null, \"status\": \"completed\", \"gpu_count\": null, \"parameters\": {}, \"date_started\": null, \"gpu_memory_mb\": null, \"model_version\": null, \"date_completed\": null, \"runtime_seconds\": null}" parent_id=21754 step=10 variance=0.31763577461242676 loss=0.31763577461242676 pbc="T T T"
W        1.01698173       1.02704996       1.10131717      -0.02426349      -0.03740684      -0.02540879
W        2.96449772       0.99304548       3.12740182       0.00495516      -0.00055357       0.00356814
W        2.97840356       3.04769488       1.30131241       0.00533501       0.01264939       0.00074072
W        0.99245207       2.95254350       3.10617893       0.00714831       0.00934577       0.00211548
W        3.93301111       3.96399356       4.26918135      -0.00116453       0.00740400       0.01796419
W        5.87790763       5.92919030       6.39537699       0.00798947       0.00856125       0.00102019
6
Lattice="-0.043394112 3.858732184 4.011499653 3.899091738 -0.059518916 4.054490961 3.926558929 4.049953748 0.402390163" Properties=species:S:1:pos:R:3:forces:R:3 generation=8 composition=W6 config_type=C15_aa source_path=V-Cr-Ti-W-Zr/Fixed_Engrads/vcrtiwzr_fin_engrads/job_gen_6-2024-12-23/W/W6_C15_idx_3104 date_processed=2025-02-12T16:53:59.228932 structure_index=3104 structure_id=21754 energy=-72.58526916503907 stress="0.20388589857021586 0.005816562218556622 0.020657210678479525 0.005816562218556622 0.2099569333573439 0.00582378364461527 0.020657210678479525 0.00582378364461527 0.20308242285893183" calculation_info="_JSON {\"calculation_id\": 21753, \"calculator\": \"vasp\", \"calculation_source_path\": \"\", \"error\": null, \"status\": \"completed\", \"gpu_count\": null, \"parameters\": {}, \"date_started\": null, \"gpu_memory_mb\": null, \"model_version\": null, \"date_completed\": null, \"runtime_seconds\": null}" parent_id=21754 step=11 variance=0.328043669462204 loss=0.328043669462204 pbc="T T T"
W        1.01802702       1.02917593       1.10196019      -0.01657086      -0.03588871      -0.01858146
W        2.96658894       0.99485267       3.12942152      -0.00417311      -0.00235204      -0.00849917
W        2.98036592       3.04944077       1.30292760      -0.00345359       0.00638671      -0.00292502
W        0.99407355       2.95424300       3.10813181       0.00677322       0.00456898      -0.00938784
W        3.93323891       3.96411611       4.26961813       0.00608951       0.01723294       0.02162108
W        5.87879647       5.93053293       6.39393954       0.01133489       0.01005218       0.01777240
6
Lattice="-0.043394112 3.858732184 4.011499653 3.899091738 -0.059518916 4.054490961 3.926558929 4.049953748 0.402390163" Properties=species:S:1:pos:R:3:forces:R:3 generation=8 composition=W6 config_type=C15_aa source_path=V-Cr-Ti-W-Zr/Fixed_Engrads/vcrtiwzr_fin_engrads/job_gen_6-2024-12-23/W/W6_C15_idx_3104 date_processed=2025-02-12T16:53:59.228932 structure_index=3104 structure_id=21754 energy=-72.58515930175781 stress="0.20388589857021586 0.005816562218556622 0.020657210678479525 0.005816562218556622 0.2099569333573439 0.00582378364461527 0.020657210678479525 0.00582378364461527 0.20308242285893183" calculation_info="_JSON {\"calculation_id\": 21753, \"calculator\": \"vasp\", \"calculation_source_path\": \"\", \"error\": null, \"status\": \"completed\", \"gpu_count\": null, \"parameters\": {}, \"date_started\": null, \"gpu_memory_mb\": null, \"model_version\": null, \"date_completed\": null, \"runtime_seconds\": null}" parent_id=21754 step=12 variance=0.4073925018310547 loss=0.4073925018310547 pbc="T T T"
W        1.01923355       1.03119665       1.10299018      -0.01414017      -0.04266295      -0.01632996
W        2.96843445       0.99595135       3.13128758      -0.01239242       0.00100154      -0.01757895
W        2.98121637       3.05130655       1.30432085       0.00303586      -0.00121856      -0.00623431
W        0.99559382       2.95583277       3.10880341       0.00176959      -0.00057822      -0.00198330
W        3.93389695       3.96383802       4.27157621       0.00870101       0.02783880       0.01530351
W        5.87968710       5.93097737       6.39371041       0.01302610       0.01561930       0.02682301
6
Lattice="-0.043394112 3.858732184 4.011499653 3.899091738 -0.059518916 4.054490961 3.926558929 4.049953748 0.402390163" Properties=species:S:1:pos:R:3:forces:R:3 generation=8 composition=W6 config_type=C15_aa source_path=V-Cr-Ti-W-Zr/Fixed_Engrads/vcrtiwzr_fin_engrads/job_gen_6-2024-12-23/W/W6_C15_idx_3104 date_processed=2025-02-12T16:53:59.228932 structure_index=3104 structure_id=21754 energy=-72.58448944091796 stress="0.20388589857021586 0.005816562218556622 0.020657210678479525 0.005816562218556622 0.2099569333573439 0.00582378364461527 0.020657210678479525 0.00582378364461527 0.20308242285893183" calculation_info="_JSON {\"calculation_id\": 21753, \"calculator\": \"vasp\", \"calculation_source_path\": \"\", \"error\": null, \"status\": \"completed\", \"gpu_count\": null, \"parameters\": {}, \"date_started\": null, \"gpu_memory_mb\": null, \"model_version\": null, \"date_completed\": null, \"runtime_seconds\": null}" parent_id=21754 step=13 variance=0.26447615027427673 loss=0.26447615027427673 pbc="T T T"
W        1.02058745       1.03519657       1.10665950      -0.04039540      -0.09202242      -0.05218235
W        2.96958107       0.99746639       3.13300455      -0.00754487      -0.00940781      -0.00629732
W        2.98007712       3.05295408       1.30572270       0.04573543       0.01114889      -0.02529251
W        0.99771459       2.95491488       3.10518910      -0.04206587       0.03363249       0.07197289
W        3.93157909       3.96380013       4.27582096       0.02143023       0.03677611      -0.00431066
W        5.87783504       5.93160371       6.39666876       0.02284046       0.01987272       0.01610992
6
Lattice="-0.043394112 3.858732184 4.011499653 3.899091738 -0.059518916 4.054490961 3.926558929 4.049953748 0.402390163" Properties=species:S:1:pos:R:3:forces:R:3 generation=8 composition=W6 config_type=C15_aa source_path=V-Cr-Ti-W-Zr/Fixed_Engrads/vcrtiwzr_fin_engrads/job_gen_6-2024-12-23/W/W6_C15_idx_3104 date_processed=2025-02-12T16:53:59.228932 structure_index=3104 structure_id=21754 energy=-72.58304901123047 stress="0.20388589857021586 0.005816562218556622 0.020657210678479525 0.005816562218556622 0.2099569333573439 0.00582378364461527 0.020657210678479525 0.00582378364461527 0.20308242285893183" calculation_info="_JSON {\"calculation_id\": 21753, \"calculator\": \"vasp\", \"calculation_source_path\": \"\", \"error\": null, \"status\": \"completed\", \"gpu_count\": null, \"parameters\": {}, \"date_started\": null, \"gpu_memory_mb\": null, \"model_version\": null, \"date_completed\": null, \"runtime_seconds\": null}" parent_id=21754 step=14 variance=0.27876022458076477 loss=0.27876022458076477 pbc="T T T"
W        1.02193592       1.03889120       1.11067033      -0.06394541      -0.13996176      -0.09322564
W        2.97041261       0.99862341       3.13451052       0.00469628      -0.01667777       0.00445447
W        2.97878651       3.05445638       1.30697762       0.09108904       0.02287462      -0.04300631
W        0.99962039       2.95395002       3.10184928      -0.07941593       0.07004143       0.14231831
W        3.92931831       3.96394552       4.27872176       0.03679790       0.04388011      -0.01508206
W        5.87957886       5.93284331       6.39952500       0.01077824       0.01984345       0.00454118
6
Lattice="-0.043394112 3.858732184 4.011499653 3.899091738 -0.059518916 4.054490961 3.926558929 4.049953748 0.402390163" Properties=species:S:1:pos:R:3:forces:R:3 generation=8 composition=W6 config_type=C15_aa source_path=V-Cr-Ti-W-Zr/Fixed_Engrads/vcrtiwzr_fin_engrads/job_gen_6-2024-12-23/W/W6_C15_idx_3104 date_processed=2025-02-12T16:53:59.228932 structure_index=3104 structure_id=21754 energy=-72.58130645751953 stress="0.20388589857021586 0.005816562218556622 0.020657210678479525 0.005816562218556622 0.2099569333573439 0.00582378364461527 0.020657210678479525 0.00582378364461527 0.20308242285893183" calculation_info="_JSON {\"calculation_id\": 21753, \"calculator\": \"vasp\", \"calculation_source_path\": \"\", \"error\": null, \"status\": \"completed\", \"gpu_count\": null, \"parameters\": {}, \"date_started\": null, \"gpu_memory_mb\": null, \"model_version\": null, \"date_completed\": null, \"runtime_seconds\": null}" parent_id=21754 step=15 variance=0.3541043996810913 loss=0.3541043996810913 pbc="T T T"
W        1.02233425       1.04227988       1.11339103      -0.07403222      -0.17597476      -0.12110595
W        2.97158917       0.99804291       3.13629007       0.00345578      -0.00203945      -0.00152618
W        2.97739010       3.05618358       1.30796592       0.13083410       0.02232732      -0.05562023
W        1.00121269       2.95378860       3.09860625      -0.10656134       0.09179029       0.20169871
W        3.92767137       3.96465886       4.28009645       0.04734259       0.04791050      -0.01962063
W        5.88117832       5.93479649       6.40132718      -0.00103885       0.01598597      -0.00382578
6
Lattice="-0.043394112 3.858732184 4.011499653 3.899091738 -0.059518916 4.054490961 3.926558929 4.049953748 0.402390163" Properties=species:S:1:pos:R:3:forces:R:3 generation=8 composition=W6 config_type=C15_aa source_path=V-Cr-Ti-W-Zr/Fixed_Engrads/vcrtiwzr_fin_engrads/job_gen_6-2024-12-23/W/W6_C15_idx_3104 date_processed=2025-02-12T16:53:59.228932 structure_index=3104 structure_id=21754 energy=-72.57925262451172 stress="0.20388589857021586 0.005816562218556622 0.020657210678479525 0.005816562218556622 0.2099569333573439 0.00582378364461527 0.020657210678479525 0.00582378364461527 0.20308242285893183" calculation_info="_JSON {\"calculation_id\": 21753, \"calculator\": \"vasp\", \"calculation_source_path\": \"\", \"error\": null, \"status\": \"completed\", \"gpu_count\": null, \"parameters\": {}, \"date_started\": null, \"gpu_memory_mb\": null, \"model_version\": null, \"date_completed\": null, \"runtime_seconds\": null}" parent_id=21754 step=16 variance=0.2968488037586212 loss=0.2968488037586212 pbc="T T T"
W        1.02270540       1.04526214       1.11598150      -0.08433054      -0.20732477      -0.14615409
W        2.97277330       0.99735475       3.13782473       0.00023262       0.01345347      -0.00581943
W        2.97612610       3.05771258       1.30888191       0.16570055       0.02266004      -0.06636379
W        1.00261664       2.95376565       3.09571426      -0.13049939       0.11015614       0.25534138
W        3.92621608       3.96543843       4.28179423       0.05608610       0.05091455      -0.02668583
W        5.88189311       5.93696010       6.40287960      -0.00718930       0.01014063      -0.01031834
6