6
Lattice="-0.057436751 3.670917334 3.64366317 3.746959649 -0.036377901 3.744978009 3.685708742 3.666615981 0.011734939" Properties=species:S:1:pos:R:3:forces:R:3 generation=6 composition=W6 config_type=C15 source_path=V-Cr-Ti-W-Zr/Fixed_Engrads/vcrtiwzr_fin_engrads/job_gen_6-2024-12-23/W/W6_C15_idx_3035 date_processed=2025-02-12T16:53:56.107310 structure_index=3035 structure_id=21686 energy=-74.93059 stress="0.016988120814301677 -0.014861751002277516 0.01109053756578196 -0.014861751002277516 0.009842335604751323 -0.012122802035584416 0.01109053756578196 -0.012122802035584416 0.01056135121454395" calculation_info="_JSON {\"calculation_id\": 21685, \"calculator\": \"vasp\", \"calculation_source_path\": \"\", \"error\": null, \"status\": \"completed\", \"gpu_count\": null, \"parameters\": {}, \"date_started\": null, \"gpu_memory_mb\": null, \"model_version\": null, \"date_completed\": null, \"runtime_seconds\": null}" pbc="T T T"
W        0.92190000       0.91264000       0.92505000       0.00000000       0.00000000       0.00000000
W        2.79538000       0.89446000       2.79754000       0.00000000       0.00000000       0.00000000
W        2.76476000       2.74595000       0.93091000       0.00000000       0.00000000       0.00000000
W        0.89319000       2.74810000       2.74688000       0.00000000       0.00000000       0.00000000
W        3.68762000       3.65058000       3.70019000       0.02888300      -0.02993300       0.04490500
W        5.53142000       5.47587000       5.55028000      -0.02888300       0.02993300      -0.04490500
6
Lattice="-0.057436751 3.670917334 3.64366317 3.746959649 -0.036377901 3.744978009 3.685708742 3.666615981 0.011734939" Properties=species:S:1:pos:R:3:forces:R:3 generation=8 composition=W6 config_type=C15_aa source_path=V-Cr-Ti-W-Zr/Fixed_Engrads/vcrtiwzr_fin_engrads/job_gen_6-2024-12-23/W/W6_C15_idx_3035 date_processed=2025-02-12T16:53:56.107310 structure_index=3035 structure_id=21686 energy=-74.88504943847656 stress="0.016988120814301677 -0.014861751002277516 0.01109053756578196 -0.014861751002277516 0.009842335604751323 -0.012122802035584416 0.01109053756578196 -0.012122802035584416 0.01056135121454395" calculation_info="_JSON {\"calculation_id\": 21685, \"calculator\": \"vasp\", \"calculation_source_path\": \"\", \"error\": null, \"status\": \"completed\", \"gpu_count\": null, \"parameters\": {}, \"date_started\": null, \"gpu_memory_mb\": null, \"model_version\": null, \"date_completed\": null, \"runtime_seconds\": null}" parent_id=21686 step=0 variance=0.2049555778503418 loss=0.2049555778503418 pbc="T T T"
W        0.92190000       0.91264000       0.92505000       0.00006335       0.00007459      -0.00001670
W        2.79538000       0.89446000       2.79754000       0.00010910      -0.00007876      -0.00002665
W        2.76476000       2.74595000       0.93091000      -0.00008359      -0.00004297       0.00003771
W        0.89319000       2.74810000       2.74688000      -0.00007333       0.00012020      -0.00004659
W        3.68762000       3.65058000       3.70019000       0.01651383      -0.02316804       0.03363492
W        5.53142000       5.47587000       5.55028000      -0.01652946       0.02309502      -0.03358262
6
Lattice="-0.057436751 3.670917334 3.64366317 3.746959649 -0.036377901 3.744978009 3.685708742 3.666615981 0.011734939" Properties=species:S:1:pos:R:3:forces:R:3 generation=8 composition=W6 config_type=C15_aa source_path=V-Cr-Ti-W-Zr/Fixed_Engrads/vcrtiwzr_fin_engrads/job_gen_6-2024-12-23/W/W6_C15_idx_3035 date_processed=2025-02-12T16:53:56.107310 structure_index=3035 structure_id=21686 energy=-74.88504943847656 stress="0.016988120814301677 -0.014861751002277516 0.01109053756578196 -0.014861751002277516 0.009842335604751323 -0.012122802035584416 0.01109053756578196 -0.012122802035584416 0.01056135121454395" calculation_info="_JSON {\"calculation_id\": 21685, \"calculator\": \"vasp\", \"calculation_source_path\": \"\", \"error\": null, \"status\": \"completed\", \"gpu_count\": null, \"parameters\": {}, \"date_started\": null, \"gpu_memory_mb\": null, \"model_version\": null, \"date_completed\": null, \"runtime_seconds\": null}" parent_id=21686 step=1 variance=0.20495955646038055 loss=0.20495955646038055 pbc="T T T"
W        0.93190000       0.92264000       0.93505000       0.00006285       0.00007433      -0.00001795
W        2.80538000       0.90446000       2.80754000       0.00010887      -0.00007890      -0.00002666
W        2.77476000       2.75595000       0.94091000      -0.00008501      -0.00004375       0.00003710
W        0.90319000       2.75810000       2.75688000      -0.00007483       0.00012094      -0.00004675
W        3.69762000       3.66058000       3.71019000       0.01651382      -0.02316907       0.03363428
W        5.54142000       5.48587000       5.56028000      -0.01652574       0.02309649      -0.03357998
6
Lattice="-0.057436751 3.670917334 3.64366317 3.746959649 -0.036377901 3.744978009 3.685708742 3.666615981 0.011734939" Properties=species:S:1:pos:R:3:forces:R:3 generation=8 composition=W6 config_type=C15_aa source_path=V-Cr-Ti-W-Zr/Fixed_Engrads/vcrtiwzr_fin_engrads/job_gen_6-2024-12-23/W/W6_C15_idx_3035 date_processed=2025-02-12T16:53:56.107310 structure_index=3035 structure_id=21686 energy=-74.88505706787109 stress="0.016988120814301677 -0.014861751002277516 0.01109053756578196 -0.014861751002277516 0.009842335604751323 -0.012122802035584416 0.01109053756578196 -0.012122802035584416 0.01056135121454395" calculation_info="_JSON {\"calculation_id\": 21685, \"calculator\": \"vasp\", \"calculation_source_path\": \"\", \"error\": null, \"status\": \"completed\", \"gpu_count\": null, \"parameters\": {}, \"date_started\": null, \"gpu_memory_mb\": null, \"model_version\": null, \"date_completed\": null, \"runtime_seconds\": null}" parent_id=21686 step=2 variance=0.20715676248073578 loss=0.20715676248073578 pbc="T T T"
W        0.94189689       0.93262504       0.94504751       0.00004806       0.00007425      -0.00012271
W        2.81537364       0.91446865       2.81753557       0.00034940      -0.00058521       0.00013509
W        2.78476276       2.76593487       0.95090598      -0.00025132       0.00007049      -0.00015818
W        0.91319195       2.76807464       2.76687950      -0.00037447       0.00043772      -0.00010690
W        3.70760830       3.67055643       3.72018597       0.01660326      -0.02306222       0.03366689
W        5.55140288       5.49585859       5.57026395      -0.01637498       0.02306492      -0.03341411
6
Lattice="-0.057436751 3.670917334 3.64366317 3.746959649 -0.036377901 3.744978009 3.685708742 3.666615981 0.011734939" Properties=species:S:1:pos:R:3:forces:R:3 generation=8 composition=W6 config_type=C15_aa source_path=V-Cr-Ti-W-Zr/Fixed_Engrads/vcrtiwzr_fin_engrads/job_gen_6-2024-12-23/W/W6_C15_idx_3035 date_processed=2025-02-12T16:53:56.107310 structure_index=3035 structure_id=21686 energy=-74.88407287597656 stress="0.016988120814301677 -0.014861751002277516 0.01109053756578196 -0.014861751002277516 0.009842335604751323 -0.012122802035584416 0.01109053756578196 -0.012122802035584416 0.01056135121454395" calculation_info="_JSON {\"calculation_id\": 21685, \"calculator\": \"vasp\", \"calculation_source_path\": \"\", \"error\": null, \"status\": \"completed\", \"gpu_count\": null, \"parameters\": {}, \"date_started\": null, \"gpu_memory_mb\": null, \"model_version\": null, \"date_completed\": null, \"runtime_seconds\": null}" parent_id=21686 step=3 variance=0.08487158268690109 loss=0.08487158268690109 pbc="T T T"
W        0.94885674       0.93973087       0.95391339      -0.00207195      -0.06469115      -0.03805944
W        2.82274921       0.92441139       2.82391137       0.03288286      -0.07936840       0.05019566
W        2.79052626       2.77304119       0.96076366       0.10193124       0.02069463      -0.11803731
W        0.92312744       2.77621816       2.76990787      -0.10138886       0.03280758       0.13388571
W        3.71699821       3.67192925       3.72959270       0.00406963       0.04356623       0.01658167
W        5.56141029       5.50106394       5.57919015      -0.03542297       0.04699095      -0.04456628
6
Lattice="-0.057436751 3.670917334 3.64366317 3.746959649 -0.036377901 3.744978009 3.685708742 3.666615981 0.011734939" Properties=species:S:1:pos:R:3:forces:R:3 generation=8 composition=W6 config_type=C15_aa source_path=V-Cr-Ti-W-Zr/Fixed_Engrads/vcrtiwzr_fin_engrads/job_gen_6-2024-12-23/W/W6_C15_idx_3035 date_processed=2025-02-12T16:53:56.107310 structure_index=3035 structure_id=21686 energy=-74.88245544433593 stress="0.016988120814301677 -0.014861751002277516 0.01109053756578196 -0.014861751002277516 0.009842335604751323 -0.012122802035584416 0.01109053756578196 -0.012122802035584416 0.01056135121454395" calculation_info="_JSON {\"calculation_id\": 21685, \"calculator\": \"vasp\", \"calculation_source_path\": \"\", \"error\": null, \"status\": \"completed\", \"gpu_count\": null, \"parameters\": {}, \"date_started\": null, \"gpu_memory_mb\": null, \"model_version\": null, \"date_completed\": null, \"runtime_seconds\": null}" parent_id=21686 step=4 variance=0.09700470417737961 loss=0.09700470417737961 pbc="T T T"
W        0.95480454       0.94519085       0.96143536      -0.01101140      -0.09147112      -0.07051370
W        2.82874911       0.93253420       2.82916367       0.06612107      -0.14358707       0.09870560
W        2.79588994       2.77867085       0.96904035       0.15918753       0.04664806      -0.20858756
W        0.93132444       2.78273373       2.77366359      -0.17776541       0.06256169       0.21134572
W        3.72578893       3.67454985       3.73760177      -0.01880524       0.08452503       0.00086592
W        5.56661566       5.50784514       5.58471297      -0.01772652       0.04132350      -0.03181603
6
Lattice="-0.057436751 3.670917334 3.64366317 3.746959649 -0.036377901 3.744978009 3.685708742 3.666615981 0.011734939" Properties=species:S:1:pos:R:3:forces:R:3 generation=8 composition=W6 config_type=C15_aa source_path=V-Cr-Ti-W-Zr/Fixed_Engrads/vcrtiwzr_fin_engrads/job_gen_6-2024-12-23/W/W6_C15_idx_3035 date_processed=2025-02-12T16:53:56.107310 structure_index=3035 structure_id=21686 energy=-74.88045196533203 stress="0.016988120814301677 -0.014861751002277516 0.01109053756578196 -0.014861751002277516 0.009842335604751323 -0.012122802035584416 0.01109053756578196 -0.012122802035584416 0.01056135121454395" calculation_info="_JSON {\"calculation_id\": 21685, \"calculator\": \"vasp\", \"calculation_source_path\": \"\", \"error\": null, \"status\": \"completed\", \"gpu_count\": null, \"parameters\": {}, \"date_started\": null, \"gpu_memory_mb\": null, \"model_version\": null, \"date_completed\": null, \"runtime_seconds\": null}" parent_id=21686 step=5 variance=0.11262913793325424 loss=0.11262913793325424 pbc="T T T"
W        0.95986761       0.94964542       0.96791407      -0.02219306      -0.10658089      -0.10060088
W        2.83369507       0.93934371       2.83355572       0.09898762      -0.19598979       0.14365909
W        2.80053176       2.78330277       0.97597913       0.20047435       0.07300588      -0.28117505
W        0.93822369       2.78812722       2.77715839      -0.23910801       0.09158381       0.26821566
W        3.73242951       3.67663422       3.74433479      -0.02973151       0.12152852      -0.01144162
W        5.57149323       5.51547176       5.58922133      -0.00842945       0.01645249      -0.01865707
6
Lattice="-0.057436751 3.670917334 3.64366317 3.746959649 -0.036377901 3.744978009 3.685708742 3.666615981 0.011734939" Properties=species:S:1:pos:R:3:forces:R:3 generation=8 composition=W6 config_type=C15_aa source_path=V-Cr-Ti-W-Zr/Fixed_Engrads/vcrtiwzr_fin_engrads/job_gen_6-2024-12-23/W/W6_C15_idx_3035 date_processed=2025-02-12T16:53:56.107310 structure_index=3035 structure_id=21686 energy=-74.8781723022461 stress="0.016988120814301677 -0.014861751002277516 0.01109053756578196 -0.014861751002277516 0.009842335604751323 -0.012122802035584416 0.01109053756578196 -0.012122802035584416 0.01056135121454395" calculation_info="_JSON {\"calculation_id\": 21685, \"calculator\": \"vasp\", \"calculation_source_path\": \"\", \"error\": null, \"status\": \"completed\", \"gpu_count\": null, \"parameters\": {}, \"date_started\": null, \"gpu_memory_mb\": null, \"model_version\": null, \"date_completed\": null, \"runtime_seconds\": null}" parent_id=21686 step=6 variance=0.10409607738256454 loss=0.10409607738256454 pbc="T T T"
W        0.96418766       0.95345582       0.97354290      -0.03183484      -0.11797460      -0.12730829
W        2.83790476       0.94520053       2.83737214       0.12850183      -0.24061604       0.18227455
W        2.80451871       2.78728592       0.98195464       0.23465273       0.09600479      -0.34294188
W        0.94415837       2.79274630       2.78024944      -0.29163328       0.11792964       0.31551713
W        3.73768521       3.67844032       3.75011939      -0.03428914       0.15354343      -0.02158558
W        5.57611436       5.52243093       5.59300220      -0.00539743      -0.00888728      -0.00595599
6
Lattice="-0.057436751 3.670917334 3.64366317 3.746959649 -0.036377901 3.744978009 3.685708742 3.666615981 0.011734939" Properties=species:S:1:pos:R:3:forces:R:3 generation=8 composition=W6 config_type=C15_aa source_path=V-Cr-Ti-W-Zr/Fixed_Engrads/vcrtiwzr_fin_engrads/job_gen_6-2024-12-23/W/W6_C15_idx_3035 date_processed=2025-02-12T16:53:56.107310 structure_index=3035 structure_id=21686 energy=-74.87590942382812 stress="0.016988120814301677 -0.014861751002277516 0.01109053756578196 -0.014861751002277516 0.009842335604751323 -0.012122802035584416 0.01109053756578196 -0.012122802035584416 0.01056135121454395" calculation_info="_JSON {\"calculation_id\": 21685, \"calculator\": \"vasp\", \"calculation_source_path\": \"\", \"error\": null, \"status\": \"completed\", \"gpu_count\": null, \"parameters\": {}, \"date_started\": null, \"gpu_memory_mb\": null, \"model_version\": null, \"date_completed\": null, \"runtime_seconds\": null}" parent_id=21686 step=7 variance=0.1018773689866066 loss=0.1018773689866066 pbc="T T T"
W        0.96808805       0.95677418       0.97846604      -0.04003009      -0.12401722      -0.14619449
W        2.84173558       0.95037365       2.84078027       0.14989154      -0.28460413       0.21532646
W        2.80830306       2.79080623       0.98735862       0.25677618       0.11376540      -0.39880043
W        0.94941683       2.79682806       2.78332449      -0.33901864       0.13468660       0.34871566
W        3.74301739       3.68033766       3.75525257      -0.04661556       0.17641637      -0.03064377
W        5.57818440       5.52702996       5.59577974       0.01899653      -0.01624700       0.01159668
6
Lattice="-0.057436751 3.670917334 3.64366317 3.746959649 -0.036377901 3.744978009 3.685708742 3.666615981 0.011734939" Properties=species:S:1:pos:R:3:forces:R:3 generation=8 composition=W6 config_type=C15_aa source_path=V-Cr-Ti-W-Zr/Fixed_Engrads/vcrtiwzr_fin_engrads/job_gen_6-2024-12-23/W/W6_C15_idx_3035 date_processed=2025-02-12T16:53:56.107310 structure_index=3035 structure_id=21686 energy=-74.87366638183593 stress="0.016988120814301677 -0.014861751002277516 0.01109053756578196 -0.014861751002277516 0.009842335604751323 -0.012122802035584416 0.01109053756578196 -0.012122802035584416 0.01056135121454395" calculation_info="_JSON {\"calculation_id\": 21685, \"calculator\": \"vasp\", \"calculation_source_path\": \"\", \"error\": null, \"status\": \"completed\", \"gpu_count\": null, \"parameters\": {}, \"date_started\": null, \"gpu_memory_mb\": null, \"model_version\": null, \"date_completed\": null, \"runtime_seconds\": null}" parent_id=21686 step=8 variance=0.07710000872612 loss=0.07710000872612 pbc="T T T"
W        0.97127737       0.95979660       0.98284356      -0.04170830      -0.13470678      -0.16236092
W        2.84500649       0.95495958       2.84396501       0.16787879      -0.32503206       0.23814991
W        2.81138617       2.79403910       0.99216048       0.28176001       0.12296021      -0.45028877
W        0.95402905       2.80045340       2.78593568      -0.38395709       0.14869820       0.38355064
W        3.74686298       3.68240364       3.75979359      -0.04875460       0.19100007      -0.03853453
W        5.58132727       5.52921465       5.59800824       0.02478122      -0.00291951       0.02948363
6
Lattice="-0.057436751 3.670917334 3.64366317 3.746959649 -0.036377901 3.744978009 3.685708742 3.666615981 0.011734939" Properties=species:S:1:pos:R:3:forces:R:3 generation=8 composition=W6 config_type=C15_aa source_path=V-Cr-Ti-W-Zr/Fixed_Engrads/vcrtiwzr_fin_engrads/job_gen_6-2024-12-23/W/W6_C15_idx_3035 date_processed=2025-02-12T16:53:56.107310 structure_index=3035 structure_id=21686 energy=-74.87126770019532 stress="0.016988120814301677 -0.014861751002277516 0.01109053756578196 -0.014861751002277516 0.009842335604751323 -0.012122802035584416 0.01109053756578196 -0.012122802035584416 0.01056135121454395" calculation_info="_JSON {\"calculation_id\": 21685, \"calculator\": \"vasp\", \"calculation_source_path\": \"\", \"error\": null, \"status\": \"completed\", \"gpu_count\": null, \"parameters\": {}, \"date_started\": null, \"gpu_memory_mb\": null, \"model_version\": null, \"date_completed\": null, \"runtime_seconds\": null}" parent_id=21686 step=9 variance=0.07553081214427948 loss=0.07553081214427948 pbc="T T T"
W        0.97403953       0.96245902       0.98665823      -0.04616042      -0.14824709      -0.18040606
W        2.84778815       0.95896150       2.84658924       0.18629298      -0.35679388       0.26185459
W        2.81388371       2.79682145       0.99617299       0.31007090       0.13511534      -0.49464139
W        0.95805035       2.80362258       2.78775133      -0.42353058       0.16626360       0.42323169
W        3.74944661       3.68383476       3.76370079      -0.04222811       0.20942429      -0.04531884
W        5.58534897       5.53259169       5.60079532       0.01555531      -0.00576245       0.03528003
6
Lattice="-0.057436751 3.670917334 3.64366317 3.746959649 -0.036377901 3.744978009 3.685708742 3.666615981 0.011734939" Properties=species:S:1:pos:R:3:forces:R:3 generation=8 composition=W6 config_type=C15_aa source_path=V-Cr-Ti-W-Zr/Fixed_Engrads/vcrtiwzr_fin_engrads/job_gen_6-2024-12-23/W/W6_C15_idx_3035 date_processed=2025-02-12T16:53:56.107310 structure_index=3035 structure_id=21686 energy=-74.86868896484376 stress="0.016988120814301677 -0.014861751002277516 0.01109053756578196 -0.014861751002277516 0.009842335604751323 -0.012122802035584416 0.01109053756578196 -0.012122802035584416 0.01056135121454395" calculation_info="_JSON {\"calculation_id\": 21685, \"calculator\": \"vasp\", \"calculation_source_path\": \"\", \"error\": null, \"status\": \"completed\", \"gpu_count\": null, \"parameters\": {}, \"date_started\": null, \"gpu_memory_mb\": null, \"model_version\": null, \"date_completed\": null, \"runtime_seconds\": null}" parent_id=21686 step=10 variance=0.09335401654243469 loss=0.09335401654243469 pbc="T T T"
W        0.97659245       0.96484648       0.98986873      -0.05467168      -0.16587029      -0.19804516
W        2.85031221       0.96248579       2.84861198       0.20173749      -0.38210937       0.28837281
W        2.81600671       2.79921122       0.99950163       0.34154573       0.15092380      -0.53421581
W        0.96160016       2.80646207       2.78872646      -0.45889813       0.18384635       0.46887454
W        3.75162666       3.68491350       3.76702031      -0.03525374       0.22861660      -0.05134772
W        5.58908876       5.53631228       5.60439899       0.00554022      -0.01540705       0.02636149
6
Lattice="-0.057436751 3.670917334 3.64366317 3.746959649 -0.036377901 3.744978009 3.685708742 3.666615981 0.011734939" Properties=species:S:1:pos:R:3:forces:R:3 generation=8 composition=W6 config_type=C15_aa source_path=V-Cr-Ti-W-Zr/Fixed_Engrads/vcrtiwzr_fin_engrads/job_gen_6-2024-12-23/W/W6_C15_idx_3035 date_processed=2025-02-12T16:53:56.107310 structure_index=3035 structure_id=21686 energy=-74.86604919433594 stress="0.016988120814301677 -0.014861751002277516 0.01109053756578196 -0.014861751002277516 0.009842335604751323 -0.012122802035584416 0.01109053756578196 -0.012122802035584416 0.01056135121454395" calculation_info="_JSON {\"calculation_id\": 21685, \"calculator\": \"vasp\", \"calculation_source_path\": \"\", \"error\": null, \"status\": \"completed\", \"gpu_count\": null, \"parameters\": {}, \"date_started\": null, \"gpu_memory_mb\": null, \"model_version\": null, \"date_completed\": null, \"runtime_seconds\": null}" parent_id=21686 step=11 variance=0.155134916305542 loss=0.155134916305542 pbc="T T T"
W        0.97900593       0.96707314       0.99251805      -0.06440498      -0.18816897      -0.21150485
W        2.85275132       0.96566122       2.85021054       0.21001036      -0.40553933       0.31440437
W        2.81791311       2.80136025       1.00238215       0.37473875       0.16598269      -0.57245475
W        0.96479660       2.80910138       2.78907536      -0.49293536       0.19605587       0.51869398
W        3.75396459       3.68618920       3.76987129      -0.03338224       0.24163744      -0.05699071
W        5.59158022       5.53831928       5.60844318       0.00597356      -0.00996769       0.00785204
6
Lattice="-0.057436751 3.670917334 3.64366317 3.746959649 -0.036377901 3.744978009 3.685708742 3.666615981 0.011734939" Properties=species:S:1:pos:R:3:forces:R:3 generation=8 composition=W6 config_type=C15_aa source_path=V-Cr-Ti-W-Zr/Fixed_Engrads/vcrtiwzr_fin_engrads/job_gen_6-2024-12-23/W/W6_C15_idx_3035 date_processed=2025-02-12T16:53:56.107310 structure_index=3035 structure_id=21686 energy=-74.86340637207032 stress="0.016988120814301677 -0.014861751002277516 0.01109053756578196 -0.014861751002277516 0.009842335604751323 -0.012122802035584416 0.01109053756578196 -0.012122802035584416 0.01056135121454395" calculation_info="_JSON {\"calculation_id\": 21685, \"calculator\": \"vasp\", \"calculation_source_path\": \"\", \"error\": null, \"status\": \"completed\", \"gpu_count\": null, \"parameters\": {}, \"date_started\": null, \"gpu_memory_mb\": null, \"model_version\": null, \"date_completed\": null, \"runtime_seconds\": null}" parent_id=21686 step=12 variance=0.08188024163246155 loss=0.08188024163246155 pbc="T T T"
W        0.98100477       0.96929029       0.99476501      -0.06702664      -0.21648666      -0.21924281
W        2.85505322       0.96860711       2.85179937       0.20991051      -0.43038464       0.33040023
W        2.81945368       2.80351527       1.00508628       0.41161546       0.17151666      -0.61304033
W        0.96770476       2.81162546       2.78905933      -0.52996016       0.20138054       0.57298642
W        3.75596953       3.68830618       3.77243073      -0.03154621       0.24116001      -0.06270244
W        5.59365740       5.53660625       5.61197339       0.00700706       0.03281396      -0.00840102
6
Lattice="-0.057436751 3.670917334 3.64366317 3.746959649 -0.036377901 3.744978009 3.685708742 3.666615981 0.011734939" Properties=species:S:1:pos:R:3:forces:R:3 generation=8 composition=W6 config_type=C15_aa source_path=V-Cr-Ti-W-Zr/Fixed_Engrads/vcrtiwzr_fin_engrads/job_gen_6-2024-12-23/W/W6_C15_idx_3035 date_processed=2025-02-12T16:53:56.107310 structure_index=3035 structure_id=21686 energy=-74.86068572998047 stress="0.016988120814301677 -0.014861751002277516 0.01109053756578196 -0.014861751002277516 0.009842335604751323 -0.012122802035584416 0.01109053756578196 -0.012122802035584416 0.01056135121454395" calculation_info="_JSON {\"calculation_id\": 21685, \"calculator\": \"vasp\", \"calculation_source_path\": \"\", \"error\": null, \"status\": \"completed\", \"gpu_count\": null, \"parameters\": {}, \"date_started\": null, \"gpu_memory_mb\": null, \"model_version\": null, \"date_completed\": null, \"runtime_seconds\": null}" parent_id=21686 step=13 variance=0.05089311674237251 loss=0.05089311674237251 pbc="T T T"
W        0.98277869       0.97123398       0.99683459      -0.07037939      -0.24104214      -0.22807030
W        2.85703614       0.97122769       2.85319447       0.21248350      -0.45158902       0.34606820
W        2.82080326       2.80540317       1.00745364       0.44446883       0.17781039      -0.64803517
W        0.97029578       2.81384512       2.78906411      -0.56218147       0.20851502       0.62116188
W        3.75740729       3.68985005       3.77472611      -0.02592994       0.24487469      -0.06760971
W        5.59610559       5.53597680       5.61521222       0.00153859       0.06143119      -0.02351487
6
Lattice="-0.057436751 3.670917334 3.64366317 3.746959649 -0.036377901 3.744978009 3.685708742 3.666615981 0.011734939" Properties=species:S:1:pos:R:3:forces:R:3 generation=8 composition=W6 config_type=C15_aa source_path=V-Cr-Ti-W-Zr/Fixed_Engrads/vcrtiwzr_fin_engrads/job_gen_6-2024-12-23/W/W6_C15_idx_3035 date_processed=2025-02-12T16:53:56.107310 structure_index=3035 structure_id=21686 energy=-74.85808868408203 stress="0.016988120814301677 -0.014861751002277516 0.01109053756578196 -0.014861751002277516 0.009842335604751323 -0.012122802035584416 0.01109053756578196 -0.012122802035584416 0.01056135121454395" calculation_info="_JSON {\"calculation_id\": 21685, \"calculator\": \"vasp\", \"calculation_source_path\": \"\", \"error\": null, \"status\": \"completed\", \"gpu_count\": null, \"parameters\": {}, \"date_started\": null, \"gpu_memory_mb\": null, \"model_version\": null, \"date_completed\": null, \"runtime_seconds\": null}" parent_id=21686 step=14 variance=0.0323646180331707 loss=0.0323646180331707 pbc="T T T"
W        0.98438560       0.97292610       0.99875684      -0.07424773      -0.26083115      -0.23712409
W        2.85876511       0.97357190       2.85443429       0.21709788      -0.47035480       0.36147559
W        2.82206079       2.80705832       1.00956629       0.47178182       0.18458667      -0.67806298
W        0.97262245       2.81580234       2.78920070      -0.58983982       0.21630795       0.66148072
W        3.75856894       3.69092924       3.77680934      -0.01927120       0.25173074      -0.07183612
W        5.59852202       5.53619262       5.61806032      -0.00552100       0.07856053      -0.03593305
6
Lattice="-0.057436751 3.670917334 3.64366317 3.746959649 -0.036377901 3.744978009 3.685708742 3.666615981 0.011734939" Properties=species:S:1:pos:R:3:forces:R:3 generation=8 composition=W6 config_type=C15_aa source_path=V-Cr-Ti-W-Zr/Fixed_Engrads/vcrtiwzr_fin_engrads/job_gen_6-2024-12-23/W/W6_C15_idx_3035 date_processed=2025-02-12T16:53:56.107310 structure_index=3035 structure_id=21686 energy=-74.85570678710937 stress="0.016988120814301677 -0.014861751002277516 0.01109053756578196 -0.014861751002277516 0.009842335604751323 -0.012122802035584416 0.01109053756578196 -0.012122802035584416 0.01056135121454395" calculation_info="_JSON {\"calculation_id\": 21685, \"calculator\": \"vasp\", \"calculation_source_path\": \"\", \"error\": null, \"status\": \"completed\", \"gpu_count\": null, \"parameters\": {}, \"date_started\": null, \"gpu_memory_mb\": null, \"model_version\": null, \"date_completed\": null, \"runtime_seconds\": null}" parent_id=21686 step=15 variance=0.022914869710803032 loss=0.022914869710803032 pbc="T T T"
W        0.98585521       0.97440530       1.00053955      -0.07817315      -0.27616170      -0.24565589
W        2.86029955       0.97568329       2.85555404       0.22270946      -0.48746338       0.37623787
W        2.82326539       2.80852386       1.01148526       0.49374419       0.19131914      -0.70411557
W        0.97472668       2.81754229       2.78948227      -0.61369789       0.22381020       0.69434035
W        3.75964716       3.69170688       3.77871455      -0.01339547       0.26009861      -0.07553116
W        5.60066193       5.53688846       5.62049978      -0.01118703       0.08839718      -0.04527564
6
Lattice="-0.057436751 3.670917334 3.64366317 3.746959649 -0.036377901 3.744978009 3.685708742 3.666615981 0.011734939" Properties=species:S:1:pos:R:3:forces:R:3 generation=8 composition=W6 config_type=C15_aa source_path=V-Cr-Ti-W-Zr/Fixed_Engrads/vcrtiwzr_fin_engrads/job_gen_6-2024-12-23/W/W6_C15_idx_3035 date_processed=2025-02-12T16:53:56.107310 structure_index=3035 structure_id=21686 energy=-74.8535659790039 stress="0.016988120814301677 -0.014861751002277516 0.01109053756578196 -0.014861751002277516 0.009842335604751323 -0.012122802035584416 0.01109053756578196 -0.012122802035584416 0.01056135121454395" calculation_info="_JSON {\"calculation_id\": 21685, \"calculator\": \"vasp\", \"calculation_source_path\": \"\", \"error\": null, \"status\": \"completed\", \"gpu_count\": null, \"parameters\": {}, \"date_started\": null, \"gpu_memory_mb\": null, \"model_version\": null, \"date_completed\": null, \"runtime_seconds\": null}" parent_id=21686 step=16 variance=0.01818668842315674 loss=0.01818668842315674 pbc="T T T"
W        0.98720182       0.97570735       1.00218587      -0.08192001      -0.28790402      -0.25340337
W        2.86167600       0.97759308       2.85657281       0.22866037      -0.50326699       0.39012715
W        2.82441953       2.80983199       1.01324187       0.51128811       0.19772592      -0.72700047
W        0.97663694       2.81909965       2.78987358      -0.63449359       0.23065731       0.72105724
W        3.76069242       3.69229299       3.78045981      -0.00869798       0.26894256      -0.07878836
W        5.60248091       5.53782192       5.62257816      -0.01483705       0.09384514      -0.05199212
6