6
Lattice="-0.05051499 3.751384098 3.646334053 3.637856861 0.016867342 3.760643662 3.651122389 3.734914452 0.041041147" Properties=species:S:1:pos:R:3:forces:R:3 generation=6 composition=W6 config_type=C15 source_path=V-Cr-Ti-W-Zr/Fixed_Engrads/vcrtiwzr_fin_engrads/job_gen_6-2024-12-23/W/W6_C15_idx_3054 date_processed=2025-02-12T16:53:56.855986 structure_index=3054 structure_id=21703 energy=-74.96198 stress="-0.0050661206103151755 -0.003542093877993505 0.009321999713453814 -0.003542093877993505 0.0030450388157355394 -0.0037786782814101093 0.009321999713453814 -0.0037786782814101093 -0.0030779627763745736" calculation_info="_JSON {\"calculation_id\": 21702, \"calculator\": \"vasp\", \"calculation_source_path\": \"\", \"error\": null, \"status\": \"completed\", \"gpu_count\": null, \"parameters\": {}, \"date_started\": null, \"gpu_memory_mb\": null, \"model_version\": null, \"date_completed\": null, \"runtime_seconds\": null}" pbc="T T T"
W        0.90481000       0.93790000       0.93100000       0.00000000       0.00000000       0.00000000
W        2.72374000       0.94633000       2.81132000       0.00000000       0.00000000       0.00000000
W        2.73037000       2.80535000       0.95152000       0.00000000       0.00000000       0.00000000
W        0.87955000       2.81359000       2.75417000       0.00000000       0.00000000       0.00000000
W        3.61923000       3.75158000       3.72401000       0.01200400      -0.02768700       0.01196100
W        5.42885000       5.62737000       5.58601000      -0.01200400       0.02768700      -0.01196100
6
Lattice="-0.05051499 3.751384098 3.646334053 3.637856861 0.016867342 3.760643662 3.651122389 3.734914452 0.041041147" Properties=species:S:1:pos:R:3:forces:R:3 generation=8 composition=W6 config_type=C15_aa source_path=V-Cr-Ti-W-Zr/Fixed_Engrads/vcrtiwzr_fin_engrads/job_gen_6-2024-12-23/W/W6_C15_idx_3054 date_processed=2025-02-12T16:53:56.855986 structure_index=3054 structure_id=21703 energy=-74.90970764160156 stress="-0.0050661206103151755 -0.003542093877993505 0.009321999713453814 -0.003542093877993505 0.0030450388157355394 -0.0037786782814101093 0.009321999713453814 -0.0037786782814101093 -0.0030779627763745736" calculation_info="_JSON {\"calculation_id\": 21702, \"calculator\": \"vasp\", \"calculation_source_path\": \"\", \"error\": null, \"status\": \"completed\", \"gpu_count\": null, \"parameters\": {}, \"date_started\": null, \"gpu_memory_mb\": null, \"model_version\": null, \"date_completed\": null, \"runtime_seconds\": null}" parent_id=21703 step=0 variance=0.21122324466705322 loss=0.21122324466705322 pbc="T T T"
W        0.90481000       0.93790000       0.93100000      -0.00006231      -0.00008101       0.00002390
W        2.72374000       0.94633000       2.81132000      -0.00005840      -0.00001844       0.00003911
W        2.73037000       2.80535000       0.95152000       0.00001836       0.00008957       0.00000686
W        0.87955000       2.81359000       2.75417000       0.00006805      -0.00006294      -0.00003872
W        3.61923000       3.75158000       3.72401000       0.00870632      -0.01574852       0.00821348
W        5.42885000       5.62737000       5.58601000      -0.00867205       0.01582120      -0.00824473
6
Lattice="-0.05051499 3.751384098 3.646334053 3.637856861 0.016867342 3.760643662 3.651122389 3.734914452 0.041041147" Properties=species:S:1:pos:R:3:forces:R:3 generation=8 composition=W6 config_type=C15_aa source_path=V-Cr-Ti-W-Zr/Fixed_Engrads/vcrtiwzr_fin_engrads/job_gen_6-2024-12-23/W/W6_C15_idx_3054 date_processed=2025-02-12T16:53:56.855986 structure_index=3054 structure_id=21703 energy=-74.90789947509765 stress="-0.0050661206103151755 -0.003542093877993505 0.009321999713453814 -0.003542093877993505 0.0030450388157355394 -0.0037786782814101093 0.009321999713453814 -0.0037786782814101093 -0.0030779627763745736" calculation_info="_JSON {\"calculation_id\": 21702, \"calculator\": \"vasp\", \"calculation_source_path\": \"\", \"error\": null, \"status\": \"completed\", \"gpu_count\": null, \"parameters\": {}, \"date_started\": null, \"gpu_memory_mb\": null, \"model_version\": null, \"date_completed\": null, \"runtime_seconds\": null}" parent_id=21703 step=1 variance=0.040250230580568314 loss=0.040250230580568314 pbc="T T T"
W        0.91481000       0.94790000       0.94100000       0.01594833       0.01537123      -0.04062317
W        2.73374000       0.95633000       2.82132000       0.01689534      -0.01664438      -0.04061506
W        2.74037000       2.81535000       0.96152000      -0.01569975      -0.01570057      -0.04174712
W        0.88955000       2.82359000       2.76417000      -0.01699829       0.01668282      -0.04342918
W        3.62923000       3.76158000       3.73401000       0.00770328      -0.01554601      -0.02256259
W        5.43885000       5.63737000       5.57601000      -0.00784882       0.01583685       0.18897715
6
Lattice="-0.05051499 3.751384098 3.646334053 3.637856861 0.016867342 3.760643662 3.651122389 3.734914452 0.041041147" Properties=species:S:1:pos:R:3:forces:R:3 generation=8 composition=W6 config_type=C15_aa source_path=V-Cr-Ti-W-Zr/Fixed_Engrads/vcrtiwzr_fin_engrads/job_gen_6-2024-12-23/W/W6_C15_idx_3054 date_processed=2025-02-12T16:53:56.855986 structure_index=3054 structure_id=21703 energy=-74.90650634765625 stress="-0.0050661206103151755 -0.003542093877993505 0.009321999713453814 -0.003542093877993505 0.0030450388157355394 -0.0037786782814101093 0.009321999713453814 -0.0037786782814101093 -0.0030779627763745736" calculation_info="_JSON {\"calculation_id\": 21702, \"calculator\": \"vasp\", \"calculation_source_path\": \"\", \"error\": null, \"status\": \"completed\", \"gpu_count\": null, \"parameters\": {}, \"date_started\": null, \"gpu_memory_mb\": null, \"model_version\": null, \"date_completed\": null, \"runtime_seconds\": null}" parent_id=21703 step=2 variance=0.02369643934071064 loss=0.02369643934071064 pbc="T T T"
W        0.92136090       0.95459854       0.94776303       0.03198575       0.02805836      -0.06630945
W        2.74037880       0.96312040       2.82837973       0.02752398      -0.02870089      -0.07524104
W        2.74707691       2.82216658       0.96825043      -0.02911818      -0.03181249      -0.06923603
W        0.89630060       2.83027870       2.77099818      -0.03085209       0.02895212      -0.07508105
W        3.63623703       3.76712529       3.73268134       0.00337847      -0.00188581       0.04898688
W        5.44504028       5.64501092       5.57676116      -0.00291779       0.00538874       0.23688063
6
Lattice="-0.05051499 3.751384098 3.646334053 3.637856861 0.016867342 3.760643662 3.651122389 3.734914452 0.041041147" Properties=species:S:1:pos:R:3:forces:R:3 generation=8 composition=W6 config_type=C15_aa source_path=V-Cr-Ti-W-Zr/Fixed_Engrads/vcrtiwzr_fin_engrads/job_gen_6-2024-12-23/W/W6_C15_idx_3054 date_processed=2025-02-12T16:53:56.855986 structure_index=3054 structure_id=21703 energy=-74.90435791015625 stress="-0.0050661206103151755 -0.003542093877993505 0.009321999713453814 -0.003542093877993505 0.0030450388157355394 -0.0037786782814101093 0.009321999713453814 -0.0037786782814101093 -0.0030779627763745736" calculation_info="_JSON {\"calculation_id\": 21702, \"calculator\": \"vasp\", \"calculation_source_path\": \"\", \"error\": null, \"status\": \"completed\", \"gpu_count\": null, \"parameters\": {}, \"date_started\": null, \"gpu_memory_mb\": null, \"model_version\": null, \"date_completed\": null, \"runtime_seconds\": null}" parent_id=21703 step=3 variance=0.012115626595914364 loss=0.012115626595914364 pbc="T T T"
W        0.92647860       0.95982231       0.95296024       0.04196396       0.03567817      -0.08633909
W        2.74557158       0.96831410       2.83373722       0.03469675      -0.03716763      -0.10079034
W        2.75217871       2.82739097       0.97344161      -0.03696555      -0.04175566      -0.09104194
W        0.90148018       2.83546751       2.77620541      -0.04112892       0.03759878      -0.09812315
W        3.64173787       3.77116723       3.73412788      -0.00110780       0.01140713       0.07535730
W        5.44970734       5.65117588       5.57489771       0.00254162      -0.00576072       0.30093718
6
Lattice="-0.05051499 3.751384098 3.646334053 3.637856861 0.016867342 3.760643662 3.651122389 3.734914452 0.041041147" Properties=species:S:1:pos:R:3:forces:R:3 generation=8 composition=W6 config_type=C15_aa source_path=V-Cr-Ti-W-Zr/Fixed_Engrads/vcrtiwzr_fin_engrads/job_gen_6-2024-12-23/W/W6_C15_idx_3054 date_processed=2025-02-12T16:53:56.855986 structure_index=3054 structure_id=21703 energy=-74.90199279785156 stress="-0.0050661206103151755 -0.003542093877993505 0.009321999713453814 -0.003542093877993505 0.0030450388157355394 -0.0037786782814101093 0.009321999713453814 -0.0037786782814101093 -0.0030779627763745736" calculation_info="_JSON {\"calculation_id\": 21702, \"calculator\": \"vasp\", \"calculation_source_path\": \"\", \"error\": null, \"status\": \"completed\", \"gpu_count\": null, \"parameters\": {}, \"date_started\": null, \"gpu_memory_mb\": null, \"model_version\": null, \"date_completed\": null, \"runtime_seconds\": null}" parent_id=21703 step=4 variance=0.009471002034842968 loss=0.009471002034842968 pbc="T T T"
W        0.93069523       0.96411536       0.95720801       0.04915342       0.04127399      -0.10270607
W        2.74984981       0.97254375       2.83810002       0.04019318      -0.04365125      -0.12147973
W        2.75632947       2.83164759       0.97769052      -0.04255261      -0.04879910      -0.10890719
W        0.90570920       2.83972374       2.78045226      -0.04933815       0.04446404      -0.11681695
W        3.64624172       3.77448332       3.73596010      -0.00478541       0.02226870       0.08930086
W        5.45351496       5.65628508       5.57270567       0.00732950      -0.01555627       0.36060914
6
Lattice="-0.05051499 3.751384098 3.646334053 3.637856861 0.016867342 3.760643662 3.651122389 3.734914452 0.041041147" Properties=species:S:1:pos:R:3:forces:R:3 generation=8 composition=W6 config_type=C15_aa source_path=V-Cr-Ti-W-Zr/Fixed_Engrads/vcrtiwzr_fin_engrads/job_gen_6-2024-12-23/W/W6_C15_idx_3054 date_processed=2025-02-12T16:53:56.855986 structure_index=3054 structure_id=21703 energy=-74.89953002929687 stress="-0.0050661206103151755 -0.003542093877993505 0.009321999713453814 -0.003542093877993505 0.0030450388157355394 -0.0037786782814101093 0.009321999713453814 -0.0037786782814101093 -0.0030779627763745736" calculation_info="_JSON {\"calculation_id\": 21702, \"calculator\": \"vasp\", \"calculation_source_path\": \"\", \"error\": null, \"status\": \"completed\", \"gpu_count\": null, \"parameters\": {}, \"date_started\": null, \"gpu_memory_mb\": null, \"model_version\": null, \"date_completed\": null, \"runtime_seconds\": null}" parent_id=21703 step=5 variance=0.008534340187907219 loss=0.008534340187907219 pbc="T T T"
W        0.93427761       0.96775227       0.96079268       0.05454695       0.04560402      -0.11649021
W        2.75348314       0.97610103       2.84177380       0.04460031      -0.04877821      -0.13887948
W        2.75981965       2.83522777       0.98127981      -0.04672278      -0.05396904      -0.12394615
W        0.90927462       2.84332492       2.78403190      -0.05610595       0.05015922      -0.13260674
W        3.65003878       3.77732298       3.73788111      -0.00779134       0.03105005       0.09665219
W        5.45673363       5.66062716       5.57045540       0.01147266      -0.02406613       0.41527072
6
Lattice="-0.05051499 3.751384098 3.646334053 3.637856861 0.016867342 3.760643662 3.651122389 3.734914452 0.041041147" Properties=species:S:1:pos:R:3:forces:R:3 generation=8 composition=W6 config_type=C15_aa source_path=V-Cr-Ti-W-Zr/Fixed_Engrads/vcrtiwzr_fin_engrads/job_gen_6-2024-12-23/W/W6_C15_idx_3054 date_processed=2025-02-12T16:53:56.855986 structure_index=3054 structure_id=21703 energy=-74.89703826904297 stress="-0.0050661206103151755 -0.003542093877993505 0.009321999713453814 -0.003542093877993505 0.0030450388157355394 -0.0037786782814101093 0.009321999713453814 -0.0037786782814101093 -0.0030779627763745736" calculation_info="_JSON {\"calculation_id\": 21702, \"calculator\": \"vasp\", \"calculation_source_path\": \"\", \"error\": null, \"status\": \"completed\", \"gpu_count\": null, \"parameters\": {}, \"date_started\": null, \"gpu_memory_mb\": null, \"model_version\": null, \"date_completed\": null, \"runtime_seconds\": null}" parent_id=21703 step=6 variance=0.008265943266451359 loss=0.008265943266451359 pbc="T T T"
W        0.93738113       0.97089329       0.96387794       0.05863392       0.04901865      -0.12833539
W        2.75662887       0.97915234       2.84493027       0.04823864      -0.05289167      -0.15382293
W        2.76281383       2.83829839       0.98437185      -0.04986922      -0.05775325      -0.13682508
W        0.91234038       2.84643153       2.78711014      -0.06177861       0.05501090      -0.14625260
W        3.65329940       3.77981389       3.73981449      -0.01024488       0.03816401       0.09968625
W        5.45951831       5.66438678       5.56821467       0.01502032      -0.03154852       0.46554965
6
Lattice="-0.05051499 3.751384098 3.646334053 3.637856861 0.016867342 3.760643662 3.651122389 3.734914452 0.041041147" Properties=species:S:1:pos:R:3:forces:R:3 generation=8 composition=W6 config_type=C15_aa source_path=V-Cr-Ti-W-Zr/Fixed_Engrads/vcrtiwzr_fin_engrads/job_gen_6-2024-12-23/W/W6_C15_idx_3054 date_processed=2025-02-12T16:53:56.855986 structure_index=3054 structure_id=21703 energy=-74.89451904296875 stress="-0.0050661206103151755 -0.003542093877993505 0.009321999713453814 -0.003542093877993505 0.0030450388157355394 -0.0037786782814101093 0.009321999713453814 -0.0037786782814101093 -0.0030779627763745736" calculation_info="_JSON {\"calculation_id\": 21702, \"calculator\": \"vasp\", \"calculation_source_path\": \"\", \"error\": null, \"status\": \"completed\", \"gpu_count\": null, \"parameters\": {}, \"date_started\": null, \"gpu_memory_mb\": null, \"model_version\": null, \"date_completed\": null, \"runtime_seconds\": null}" parent_id=21703 step=7 variance=0.008394856937229633 loss=0.008394856937229633 pbc="T T T"
W        0.94010619       0.97364180       0.96656865       0.06169943       0.05175648      -0.13865896
W        2.75938845       0.98180322       2.84767824       0.05127579      -0.05619275      -0.16684122
W        2.76541605       2.84096557       0.98707084      -0.05222648      -0.06046220      -0.14801502
W        0.91501143       2.84914691       2.78979242      -0.06659608       0.05921381      -0.15823261
W        3.65613423       3.78204076       3.74174469      -0.01225424       0.04382835       0.09944241
W        5.46195822       5.66768071       5.56598461       0.01810159      -0.03814368       0.51230532
6
Lattice="-0.05051499 3.751384098 3.646334053 3.637856861 0.016867342 3.760643662 3.651122389 3.734914452 0.041041147" Properties=species:S:1:pos:R:3:forces:R:3 generation=8 composition=W6 config_type=C15_aa source_path=V-Cr-Ti-W-Zr/Fixed_Engrads/vcrtiwzr_fin_engrads/job_gen_6-2024-12-23/W/W6_C15_idx_3054 date_processed=2025-02-12T16:53:56.855986 structure_index=3054 structure_id=21703 energy=-74.89198760986328 stress="-0.0050661206103151755 -0.003542093877993505 0.009321999713453814 -0.003542093877993505 0.0030450388157355394 -0.0037786782814101093 0.009321999713453814 -0.0037786782814101093 -0.0030779627763745736" calculation_info="_JSON {\"calculation_id\": 21702, \"calculator\": \"vasp\", \"calculation_source_path\": \"\", \"error\": null, \"status\": \"completed\", \"gpu_count\": null, \"parameters\": {}, \"date_started\": null, \"gpu_memory_mb\": null, \"model_version\": null, \"date_completed\": null, \"runtime_seconds\": null}" parent_id=21703 step=8 variance=0.008859768509864807 loss=0.008859768509864807 pbc="T T T"
W        0.94252266       0.97606953       0.96893711       0.06390333       0.05393428      -0.14778784
W        2.76183282       0.98412652       2.85009183       0.05385564      -0.05883193      -0.17829791
W        2.76769833       2.84330243       0.98944885      -0.05395254      -0.06226284      -0.15784043
W        0.91736012       2.85154256       2.79215136      -0.07072605       0.06291194      -0.16890302
W        3.65861736       3.78406279       3.74367809      -0.01385690       0.04818895       0.09644648
W        5.46411862       5.67058779       5.56374343       0.02077639      -0.04394043       0.55638278
6
Lattice="-0.05051499 3.751384098 3.646334053 3.637856861 0.016867342 3.760643662 3.651122389 3.734914452 0.041041147" Properties=species:S:1:pos:R:3:forces:R:3 generation=8 composition=W6 config_type=C15_aa source_path=V-Cr-Ti-W-Zr/Fixed_Engrads/vcrtiwzr_fin_engrads/job_gen_6-2024-12-23/W/W6_C15_idx_3054 date_processed=2025-02-12T16:53:56.855986 structure_index=3054 structure_id=21703 energy=-74.88941802978516 stress="-0.0050661206103151755 -0.003542093877993505 0.009321999713453814 -0.003542093877993505 0.0030450388157355394 -0.0037786782814101093 0.009321999713453814 -0.0037786782814101093 -0.0030779627763745736" calculation_info="_JSON {\"calculation_id\": 21702, \"calculator\": \"vasp\", \"calculation_source_path\": \"\", \"error\": null, \"status\": \"completed\", \"gpu_count\": null, \"parameters\": {}, \"date_started\": null, \"gpu_memory_mb\": null, \"model_version\": null, \"date_completed\": null, \"runtime_seconds\": null}" parent_id=21703 step=9 variance=0.009713086299598217 loss=0.009713086299598217 pbc="T T T"
W        0.94468299       0.97822918       0.97103614       0.06536014       0.05565121      -0.15596154
W        2.76401442       0.98617474       2.85222488       0.05608044      -0.06089973      -0.18845139
W        2.76971288       2.84536153       0.99155857      -0.05511750      -0.06325316      -0.16655758
W        0.91943929       2.85367097       2.79423968      -0.07426478       0.06623106      -0.17850570
W        3.66080352       3.78593284       3.74563467      -0.01508732       0.05125346       0.09089313
W        5.46605342       5.67316675       5.56145658       0.02302899      -0.04898291       0.59858334
6
Lattice="-0.05051499 3.751384098 3.646334053 3.637856861 0.016867342 3.760643662 3.651122389 3.734914452 0.041041147" Properties=species:S:1:pos:R:3:forces:R:3 generation=8 composition=W6 config_type=C15_aa source_path=V-Cr-Ti-W-Zr/Fixed_Engrads/vcrtiwzr_fin_engrads/job_gen_6-2024-12-23/W/W6_C15_idx_3054 date_processed=2025-02-12T16:53:56.855986 structure_index=3054 structure_id=21703 energy=-74.88679962158203 stress="-0.0050661206103151755 -0.003542093877993505 0.009321999713453814 -0.003542093877993505 0.0030450388157355394 -0.0037786782814101093 0.009321999713453814 -0.0037786782814101093 -0.0030779627763745736" calculation_info="_JSON {\"calculation_id\": 21702, \"calculator\": \"vasp\", \"calculation_source_path\": \"\", \"error\": null, \"status\": \"completed\", \"gpu_count\": null, \"parameters\": {}, \"date_started\": null, \"gpu_memory_mb\": null, \"model_version\": null, \"date_completed\": null, \"runtime_seconds\": null}" parent_id=21703 step=10 variance=0.011131231673061848 loss=0.011131231673061848 pbc="T T T"
W        0.94662814       0.98016075       0.97290578       0.06609721       0.05697642      -0.16334710
W        2.76597349       0.98798706       2.85411690       0.05801413      -0.06243297      -0.19745702
W        2.77149932       2.84718197       0.99343995      -0.05578943      -0.06346188      -0.17433196
W        0.92128892       2.85557202       2.79609724      -0.07728824       0.06924147      -0.18724439
W        3.66273219       3.78770098       3.74764834      -0.01594741       0.05291655       0.08272402
W        5.46779731       5.67545490       5.55908642       0.02491384      -0.05323949       0.63965654
6
Lattice="-0.05051499 3.751384098 3.646334053 3.637856861 0.016867342 3.760643662 3.651122389 3.734914452 0.041041147" Properties=species:S:1:pos:R:3:forces:R:3 generation=8 composition=W6 config_type=C15_aa source_path=V-Cr-Ti-W-Zr/Fixed_Engrads/vcrtiwzr_fin_engrads/job_gen_6-2024-12-23/W/W6_C15_idx_3054 date_processed=2025-02-12T16:53:56.855986 structure_index=3054 structure_id=21703 energy=-74.88408203125 stress="-0.0050661206103151755 -0.003542093877993505 0.009321999713453814 -0.003542093877993505 0.0030450388157355394 -0.0037786782814101093 0.009321999713453814 -0.0037786782814101093 -0.0030779627763745736" calculation_info="_JSON {\"calculation_id\": 21702, \"calculator\": \"vasp\", \"calculation_source_path\": \"\", \"error\": null, \"status\": \"completed\", \"gpu_count\": null, \"parameters\": {}, \"date_started\": null, \"gpu_memory_mb\": null, \"model_version\": null, \"date_completed\": null, \"runtime_seconds\": null}" parent_id=21703 step=11 variance=0.01355272438377142 loss=0.01355272438377142 pbc="T T T"
W        0.94839188       0.98189522       0.97457718       0.06607972       0.05797200      -0.17013901
W        2.76774206       0.98959231       2.85579687       0.05976014      -0.06342845      -0.20540158
W        2.77308908       2.84879287       0.99512424      -0.05600136      -0.06283241      -0.18129501
W        0.92293982       2.85727694       2.79775480      -0.07980572       0.07206570      -0.19530280
W        3.66442928       3.78943176       3.74977056      -0.01637692       0.05282653       0.07159252
W        5.46938994       5.67747696       5.55656805       0.02634404      -0.05660335       0.68054593
6
Lattice="-0.05051499 3.751384098 3.646334053 3.637856861 0.016867342 3.760643662 3.651122389 3.734914452 0.041041147" Properties=species:S:1:pos:R:3:forces:R:3 generation=8 composition=W6 config_type=C15_aa source_path=V-Cr-Ti-W-Zr/Fixed_Engrads/vcrtiwzr_fin_engrads/job_gen_6-2024-12-23/W/W6_C15_idx_3054 date_processed=2025-02-12T16:53:56.855986 structure_index=3054 structure_id=21703 energy=-74.88117065429688 stress="-0.0050661206103151755 -0.003542093877993505 0.009321999713453814 -0.003542093877993505 0.0030450388157355394 -0.0037786782814101093 0.009321999713453814 -0.0037786782814101093 -0.0030779627763745736" calculation_info="_JSON {\"calculation_id\": 21702, \"calculator\": \"vasp\", \"calculation_source_path\": \"\", \"error\": null, \"status\": \"completed\", \"gpu_count\": null, \"parameters\": {}, \"date_started\": null, \"gpu_memory_mb\": null, \"model_version\": null, \"date_completed\": null, \"runtime_seconds\": null}" parent_id=21703 step=12 variance=0.018159152939915657 loss=0.018159152939915657 pbc="T T T"
W        0.95000453       0.98345681       0.97607520       0.06518559       0.05873816      -0.17653741
W        2.76934701       0.99101053       2.85728487       0.06140542      -0.06383450      -0.21232593
W        2.77450742       2.85021375       0.99663637      -0.05579873      -0.06121648      -0.18757153
W        0.92441638       2.85881040       2.79923679      -0.08184437       0.07480709      -0.20293279
W        3.66590677       3.79122292       3.75208257      -0.01624403       0.05019001       0.05672546
W        5.47085798       5.67922647       5.55378881       0.02729601      -0.05868430       0.72264218
6
Lattice="-0.05051499 3.751384098 3.646334053 3.637856861 0.016867342 3.760643662 3.651122389 3.734914452 0.041041147" Properties=species:S:1:pos:R:3:forces:R:3 generation=8 composition=W6 config_type=C15_aa source_path=V-Cr-Ti-W-Zr/Fixed_Engrads/vcrtiwzr_fin_engrads/job_gen_6-2024-12-23/W/W6_C15_idx_3054 date_processed=2025-02-12T16:53:56.855986 structure_index=3054 structure_id=21703 energy=-74.87791137695312 stress="-0.0050661206103151755 -0.003542093877993505 0.009321999713453814 -0.003542093877993505 0.0030450388157355394 -0.0037786782814101093 0.009321999713453814 -0.0037786782814101093 -0.0030779627763745736" calculation_info="_JSON {\"calculation_id\": 21702, \"calculator\": \"vasp\", \"calculation_source_path\": \"\", \"error\": null, \"status\": \"completed\", \"gpu_count\": null, \"parameters\": {}, \"date_started\": null, \"gpu_memory_mb\": null, \"model_version\": null, \"date_completed\": null, \"runtime_seconds\": null}" parent_id=21703 step=13 variance=0.029135897755622864 loss=0.029135897755622864 pbc="T T T"
W        0.95149886       0.98486177       0.97741943       0.06304664       0.05939977      -0.18281041
W        2.77081207       0.99225029       2.85858886       0.06310413      -0.06345578      -0.21807913
W        2.77577687       2.85145190       0.99799623      -0.05521996      -0.05817799      -0.19324642
W        0.92573675       2.86019161       2.80056225      -0.08328454       0.07766084      -0.21047685
W        3.66714587       3.79327775       3.75472107      -0.01510958       0.04299452       0.03664794
W        5.47224923       5.68063753       5.55056805       0.02746318      -0.05842140       0.76796472
6
Lattice="-0.05051499 3.751384098 3.646334053 3.637856861 0.016867342 3.760643662 3.651122389 3.734914452 0.041041147" Properties=species:S:1:pos:R:3:forces:R:3 generation=8 composition=W6 config_type=C15_aa source_path=V-Cr-Ti-W-Zr/Fixed_Engrads/vcrtiwzr_fin_engrads/job_gen_6-2024-12-23/W/W6_C15_idx_3054 date_processed=2025-02-12T16:53:56.855986 structure_index=3054 structure_id=21703 energy=-74.87399291992188 stress="-0.0050661206103151755 -0.003542093877993505 0.009321999713453814 -0.003542093877993505 0.0030450388157355394 -0.0037786782814101093 0.009321999713453814 -0.0037786782814101093 -0.0030779627763745736" calculation_info="_JSON {\"calculation_id\": 21702, \"calculator\": \"vasp\", \"calculation_source_path\": \"\", \"error\": null, \"status\": \"completed\", \"gpu_count\": null, \"parameters\": {}, \"date_started\": null, \"gpu_memory_mb\": null, \"model_version\": null, \"date_completed\": null, \"runtime_seconds\": null}" parent_id=21703 step=14 variance=0.07683273404836655 loss=0.07683273404836655 pbc="T T T"
W        0.95292997       0.98611167       0.97862527       0.05853403       0.06033435      -0.18949759
W        2.77216264       0.99329422       2.85969183       0.06520966      -0.06164714      -0.22181985
W        2.77692778       2.85248300       0.99921905      -0.05440035      -0.05242957      -0.19822876
W        0.92691371       2.86143227       2.80174844      -0.08365540       0.08099925      -0.21869206
W        3.66802602       3.79618283       3.75796882      -0.01137314       0.02491996       0.00810805
W        5.47367758       5.68141941       5.54656684       0.02568507      -0.05217689       0.82013035
6
Lattice="-0.05051499 3.751384098 3.646334053 3.637856861 0.016867342 3.760643662 3.651122389 3.734914452 0.041041147" Properties=species:S:1:pos:R:3:forces:R:3 generation=8 composition=W6 config_type=C15_aa source_path=V-Cr-Ti-W-Zr/Fixed_Engrads/vcrtiwzr_fin_engrads/job_gen_6-2024-12-23/W/W6_C15_idx_3054 date_processed=2025-02-12T16:53:56.855986 structure_index=3054 structure_id=21703 energy=-74.86862487792969 stress="-0.0050661206103151755 -0.003542093877993505 0.009321999713453814 -0.003542093877993505 0.0030450388157355394 -0.0037786782814101093 0.009321999713453814 -0.0037786782814101093 -0.0030779627763745736" calculation_info="_JSON {\"calculation_id\": 21702, \"calculator\": \"vasp\", \"calculation_source_path\": \"\", \"error\": null, \"status\": \"completed\", \"gpu_count\": null, \"parameters\": {}, \"date_started\": null, \"gpu_memory_mb\": null, \"model_version\": null, \"date_completed\": null, \"runtime_seconds\": null}" parent_id=21703 step=15 variance=0.07007614523172379 loss=0.07007614523172379 pbc="T T T"
W        0.95455794       0.98708948       0.97970174       0.04663617       0.06052820      -0.19756156
W        2.77346431       0.99396173       2.86039982       0.06834874      -0.05857085      -0.21829370
W        2.77812360       2.85306518       1.00031085      -0.05348780      -0.04028776      -0.20227687
W        0.92796611       2.86250396       2.80283844      -0.08067366       0.08246396      -0.22997169
W        3.66728467       3.80154549       3.76261003       0.01038579      -0.02428187      -0.03812297
W        5.47633480       5.67965362       5.54107607       0.00879068      -0.01985180       0.88622653
6
Lattice="-0.05051499 3.751384098 3.646334053 3.637856861 0.016867342 3.760643662 3.651122389 3.734914452 0.041041147" Properties=species:S:1:pos:R:3:forces:R:3 generation=8 composition=W6 config_type=C15_aa source_path=V-Cr-Ti-W-Zr/Fixed_Engrads/vcrtiwzr_fin_engrads/job_gen_6-2024-12-23/W/W6_C15_idx_3054 date_processed=2025-02-12T16:53:56.855986 structure_index=3054 structure_id=21703 energy=-74.86492919921875 stress="-0.0050661206103151755 -0.003542093877993505 0.009321999713453814 -0.003542093877993505 0.0030450388157355394 -0.0037786782814101093 0.009321999713453814 -0.0037786782814101093 -0.0030779627763745736" calculation_info="_JSON {\"calculation_id\": 21702, \"calculator\": \"vasp\", \"calculation_source_path\": \"\", \"error\": null, \"status\": \"completed\", \"gpu_count\": null, \"parameters\": {}, \"date_started\": null, \"gpu_memory_mb\": null, \"model_version\": null, \"date_completed\": null, \"runtime_seconds\": null}" parent_id=21703 step=16 variance=0.04366539418697357 loss=0.04366539418697357 pbc="T T T"
W        0.95580424       0.98805248       0.98071725       0.04431298       0.06168864      -0.20555761
W        2.77457835       0.99475278       2.86136663       0.07095794      -0.05939975      -0.22525160
W        2.77914505       2.85382485       1.00132334      -0.05452580      -0.03817725      -0.20921247
W        0.92895615       2.86349827       2.80388255      -0.08205736       0.08463343      -0.24154429
W        3.66732364       3.80408492       3.76340799       0.02165726      -0.04241439      -0.04266285
W        5.47816181       5.67942714       5.53800427      -0.00034506      -0.00633067       0.92422879
6