2
Lattice="30.0 0.0 0.0 0.0 18.0 0.0 0.0 0.0 17.0" Properties=species:S:1:pos:R:3:forces:R:3 batch_id=T generation=6 composition=V2 config_type=dimer source_path=V-Cr-Ti-W-Zr/Fixed_Engrads/vcrtiwzr_fin_engrads/job_gen_6-2024-12-23/V/V2_dimer_idx_4 temperature=T date_processed=2025-01-03T17:40:39.863325 structure_type=T structure_index=4 adversarial_step=T structure_id=8520 energy=-9.835079 stress="-4.0151628206807e-05 0.0 0.0 0.0 1.4605131354566824e-06 0.0 0.0 0.0 1.766347082624962e-06" calculation_info="_JSON {\"calculation_id\": 8520, \"calculator\": \"vasp\", \"calculation_source_path\": \"\", \"error\": null, \"status\": \"completed\", \"gpu_count\": null, \"parameters\": {}, \"date_started\": null, \"gpu_memory_mb\": null, \"model_version\": null, \"date_completed\": null, \"runtime_seconds\": null}" pbc="T T T"
V        0.00000000       0.00000000       0.00000000      -0.21404300       0.00000000       0.00000000
V        1.80000000       0.00000000       0.00000000       0.21404300       0.00000000       0.00000000
2
Lattice="30.0 0.0 0.0 0.0 18.0 0.0 0.0 0.0 17.0" Properties=species:S:1:pos:R:3:forces:R:3 batch_id=T generation=8 composition=V2 config_type=dimer_aa source_path=V-Cr-Ti-W-Zr/Fixed_Engrads/vcrtiwzr_fin_engrads/job_gen_6-2024-12-23/V/V2_dimer_idx_4 temperature=T date_processed=2025-01-03T17:40:39.863325 structure_type=T structure_index=4 adversarial_step=T structure_id=8520 energy=-9.882963371276855 stress="-4.0151628206807e-05 0.0 0.0 0.0 1.4605131354566824e-06 0.0 0.0 0.0 1.766347082624962e-06" calculation_info="_JSON {\"calculation_id\": 8520, \"calculator\": \"vasp\", \"calculation_source_path\": \"\", \"error\": null, \"status\": \"completed\", \"gpu_count\": null, \"parameters\": {}, \"date_started\": null, \"gpu_memory_mb\": null, \"model_version\": null, \"date_completed\": null, \"runtime_seconds\": null}" parent_id=8520 step=0 variance=0.9600000381469727 loss=0.9600000381469727 pbc="T T T"
V        0.00000000       0.00000000       0.00000000       0.15052184       0.00000000       0.00000000
V        1.80000000       0.00000000       0.00000000      -0.15052184       0.00000000       0.00000000
2
Lattice="30.0 0.0 0.0 0.0 18.0 0.0 0.0 0.0 17.0" Properties=species:S:1:pos:R:3:forces:R:3 batch_id=T generation=8 composition=V2 config_type=dimer_aa source_path=V-Cr-Ti-W-Zr/Fixed_Engrads/vcrtiwzr_fin_engrads/job_gen_6-2024-12-23/V/V2_dimer_idx_4 temperature=T date_processed=2025-01-03T17:40:39.863325 structure_type=T structure_index=4 adversarial_step=T structure_id=8520 energy=-9.882963371276855 stress="-4.0151628206807e-05 0.0 0.0 0.0 1.4605131354566824e-06 0.0 0.0 0.0 1.766347082624962e-06" calculation_info="_JSON {\"calculation_id\": 8520, \"calculator\": \"vasp\", \"calculation_source_path\": \"\", \"error\": null, \"status\": \"completed\", \"gpu_count\": null, \"parameters\": {}, \"date_started\": null, \"gpu_memory_mb\": null, \"model_version\": null, \"date_completed\": null, \"runtime_seconds\": null}" parent_id=8520 step=1 variance=0.9600000381469727 loss=0.9600000381469727 pbc="T T T"
V        0.00000000       0.00000000       0.00000000       0.15052184       0.00000000       0.00000000
V        1.80000000       0.00000000       0.00000000      -0.15052184       0.00000000       0.00000000
2
Lattice="30.0 0.0 0.0 0.0 18.0 0.0 0.0 0.0 17.0" Properties=species:S:1:pos:R:3:forces:R:3 batch_id=T generation=8 composition=V2 config_type=dimer_aa source_path=V-Cr-Ti-W-Zr/Fixed_Engrads/vcrtiwzr_fin_engrads/job_gen_6-2024-12-23/V/V2_dimer_idx_4 temperature=T date_processed=2025-01-03T17:40:39.863325 structure_type=T structure_index=4 adversarial_step=T structure_id=8520 energy=-9.882963371276855 stress="-4.0151628206807e-05 0.0 0.0 0.0 1.4605131354566824e-06 0.0 0.0 0.0 1.766347082624962e-06" calculation_info="_JSON {\"calculation_id\": 8520, \"calculator\": \"vasp\", \"calculation_source_path\": \"\", \"error\": null, \"status\": \"completed\", \"gpu_count\": null, \"parameters\": {}, \"date_started\": null, \"gpu_memory_mb\": null, \"model_version\": null, \"date_completed\": null, \"runtime_seconds\": null}" parent_id=8520 step=2 variance=0.9600000381469727 loss=0.9600000381469727 pbc="T T T"
V        0.00000000       0.00000000       0.00000000       0.15052184       0.00000000       0.00000000
V        1.80000000       0.00000000       0.00000000      -0.15052184       0.00000000       0.00000000
2
Lattice="30.0 0.0 0.0 0.0 18.0 0.0 0.0 0.0 17.0" Properties=species:S:1:pos:R:3:forces:R:3 batch_id=T generation=8 composition=V2 config_type=dimer_aa source_path=V-Cr-Ti-W-Zr/Fixed_Engrads/vcrtiwzr_fin_engrads/job_gen_6-2024-12-23/V/V2_dimer_idx_4 temperature=T date_processed=2025-01-03T17:40:39.863325 structure_type=T structure_index=4 adversarial_step=T structure_id=8520 energy=-9.882963371276855 stress="-4.0151628206807e-05 0.0 0.0 0.0 1.4605131354566824e-06 0.0 0.0 0.0 1.766347082624962e-06" calculation_info="_JSON {\"calculation_id\": 8520, \"calculator\": \"vasp\", \"calculation_source_path\": \"\", \"error\": null, \"status\": \"completed\", \"gpu_count\": null, \"parameters\": {}, \"date_started\": null, \"gpu_memory_mb\": null, \"model_version\": null, \"date_completed\": null, \"runtime_seconds\": null}" parent_id=8520 step=3 variance=0.9600000381469727 loss=0.9600000381469727 pbc="T T T"
V        0.00000000       0.00000000       0.00000000       0.15052184       0.00000000       0.00000000
V        1.80000000       0.00000000       0.00000000      -0.15052184       0.00000000       0.00000000
2
Lattice="30.0 0.0 0.0 0.0 18.0 0.0 0.0 0.0 17.0" Properties=species:S:1:pos:R:3:forces:R:3 batch_id=T generation=8 composition=V2 config_type=dimer_aa source_path=V-Cr-Ti-W-Zr/Fixed_Engrads/vcrtiwzr_fin_engrads/job_gen_6-2024-12-23/V/V2_dimer_idx_4 temperature=T date_processed=2025-01-03T17:40:39.863325 structure_type=T structure_index=4 adversarial_step=T structure_id=8520 energy=-9.882963371276855 stress="-4.0151628206807e-05 0.0 0.0 0.0 1.4605131354566824e-06 0.0 0.0 0.0 1.766347082624962e-06" calculation_info="_JSON {\"calculation_id\": 8520, \"calculator\": \"vasp\", \"calculation_source_path\": \"\", \"error\": null, \"status\": \"completed\", \"gpu_count\": null, \"parameters\": {}, \"date_started\": null, \"gpu_memory_mb\": null, \"model_version\": null, \"date_completed\": null, \"runtime_seconds\": null}" parent_id=8520 step=4 variance=0.9600000381469727 loss=0.9600000381469727 pbc="T T T"
V        0.00000000       0.00000000       0.00000000       0.15052184       0.00000000       0.00000000
V        1.80000000       0.00000000       0.00000000      -0.15052184       0.00000000       0.00000000
2
Lattice="30.0 0.0 0.0 0.0 18.0 0.0 0.0 0.0 17.0" Properties=species:S:1:pos:R:3:forces:R:3 batch_id=T generation=8 composition=V2 config_type=dimer_aa source_path=V-Cr-Ti-W-Zr/Fixed_Engrads/vcrtiwzr_fin_engrads/job_gen_6-2024-12-23/V/V2_dimer_idx_4 temperature=T date_processed=2025-01-03T17:40:39.863325 structure_type=T structure_index=4 adversarial_step=T structure_id=8520 energy=-9.882963371276855 stress="-4.0151628206807e-05 0.0 0.0 0.0 1.4605131354566824e-06 0.0 0.0 0.0 1.766347082624962e-06" calculation_info="_JSON {\"calculation_id\": 8520, \"calculator\": \"vasp\", \"calculation_source_path\": \"\", \"error\": null, \"status\": \"completed\", \"gpu_count\": null, \"parameters\": {}, \"date_started\": null, \"gpu_memory_mb\": null, \"model_version\": null, \"date_completed\": null, \"runtime_seconds\": null}" parent_id=8520 step=5 variance=0.9600000381469727 loss=0.9600000381469727 pbc="T T T"
V        0.00000000       0.00000000       0.00000000       0.15052184       0.00000000       0.00000000
V        1.80000000       0.00000000       0.00000000      -0.15052184       0.00000000       0.00000000
2
Lattice="30.0 0.0 0.0 0.0 18.0 0.0 0.0 0.0 17.0" Properties=species:S:1:pos:R:3:forces:R:3 batch_id=T generation=8 composition=V2 config_type=dimer_aa source_path=V-Cr-Ti-W-Zr/Fixed_Engrads/vcrtiwzr_fin_engrads/job_gen_6-2024-12-23/V/V2_dimer_idx_4 temperature=T date_processed=2025-01-03T17:40:39.863325 structure_type=T structure_index=4 adversarial_step=T structure_id=8520 energy=-9.882963371276855 stress="-4.0151628206807e-05 0.0 0.0 0.0 1.4605131354566824e-06 0.0 0.0 0.0 1.766347082624962e-06" calculation_info="_JSON {\"calculation_id\": 8520, \"calculator\": \"vasp\", \"calculation_source_path\": \"\", \"error\": null, \"status\": \"completed\", \"gpu_count\": null, \"parameters\": {}, \"date_started\": null, \"gpu_memory_mb\": null, \"model_version\": null, \"date_completed\": null, \"runtime_seconds\": null}" parent_id=8520 step=6 variance=0.9600000381469727 loss=0.9600000381469727 pbc="T T T"
V        0.00000000       0.00000000       0.00000000       0.15052184       0.00000000       0.00000000
V        1.80000000       0.00000000       0.00000000      -0.15052184       0.00000000       0.00000000
2
Lattice="30.0 0.0 0.0 0.0 18.0 0.0 0.0 0.0 17.0" Properties=species:S:1:pos:R:3:forces:R:3 batch_id=T generation=8 composition=V2 config_type=dimer_aa source_path=V-Cr-Ti-W-Zr/Fixed_Engrads/vcrtiwzr_fin_engrads/job_gen_6-2024-12-23/V/V2_dimer_idx_4 temperature=T date_processed=2025-01-03T17:40:39.863325 structure_type=T structure_index=4 adversarial_step=T structure_id=8520 energy=-9.882963371276855 stress="-4.0151628206807e-05 0.0 0.0 0.0 1.4605131354566824e-06 0.0 0.0 0.0 1.766347082624962e-06" calculation_info="_JSON {\"calculation_id\": 8520, \"calculator\": \"vasp\", \"calculation_source_path\": \"\", \"error\": null, \"status\": \"completed\", \"gpu_count\": null, \"parameters\": {}, \"date_started\": null, \"gpu_memory_mb\": null, \"model_version\": null, \"date_completed\": null, \"runtime_seconds\": null}" parent_id=8520 step=7 variance=0.9600000381469727 loss=0.9600000381469727 pbc="T T T"
V        0.00000000       0.00000000       0.00000000       0.15052184       0.00000000       0.00000000
V        1.80000000       0.00000000       0.00000000      -0.15052184       0.00000000       0.00000000
2
Lattice="30.0 0.0 0.0 0.0 18.0 0.0 0.0 0.0 17.0" Properties=species:S:1:pos:R:3:forces:R:3 batch_id=T generation=8 composition=V2 config_type=dimer_aa source_path=V-Cr-Ti-W-Zr/Fixed_Engrads/vcrtiwzr_fin_engrads/job_gen_6-2024-12-23/V/V2_dimer_idx_4 temperature=T date_processed=2025-01-03T17:40:39.863325 structure_type=T structure_index=4 adversarial_step=T structure_id=8520 energy=-9.882963371276855 stress="-4.0151628206807e-05 0.0 0.0 0.0 1.4605131354566824e-06 0.0 0.0 0.0 1.766347082624962e-06" calculation_info="_JSON {\"calculation_id\": 8520, \"calculator\": \"vasp\", \"calculation_source_path\": \"\", \"error\": null, \"status\": \"completed\", \"gpu_count\": null, \"parameters\": {}, \"date_started\": null, \"gpu_memory_mb\": null, \"model_version\": null, \"date_completed\": null, \"runtime_seconds\": null}" parent_id=8520 step=8 variance=0.9600000381469727 loss=0.9600000381469727 pbc="T T T"
V        0.00000000       0.00000000       0.00000000       0.15052184       0.00000000       0.00000000
V        1.80000000       0.00000000       0.00000000      -0.15052184       0.00000000       0.00000000
2
Lattice="30.0 0.0 0.0 0.0 18.0 0.0 0.0 0.0 17.0" Properties=species:S:1:pos:R:3:forces:R:3 batch_id=T generation=8 composition=V2 config_type=dimer_aa source_path=V-Cr-Ti-W-Zr/Fixed_Engrads/vcrtiwzr_fin_engrads/job_gen_6-2024-12-23/V/V2_dimer_idx_4 temperature=T date_processed=2025-01-03T17:40:39.863325 structure_type=T structure_index=4 adversarial_step=T structure_id=8520 energy=-9.882963371276855 stress="-4.0151628206807e-05 0.0 0.0 0.0 1.4605131354566824e-06 0.0 0.0 0.0 1.766347082624962e-06" calculation_info="_JSON {\"calculation_id\": 8520, \"calculator\": \"vasp\", \"calculation_source_path\": \"\", \"error\": null, \"status\": \"completed\", \"gpu_count\": null, \"parameters\": {}, \"date_started\": null, \"gpu_memory_mb\": null, \"model_version\": null, \"date_completed\": null, \"runtime_seconds\": null}" parent_id=8520 step=9 variance=0.9600000381469727 loss=0.9600000381469727 pbc="T T T"
V        0.00000000       0.00000000       0.00000000       0.15052184       0.00000000       0.00000000
V        1.80000000       0.00000000       0.00000000      -0.15052184       0.00000000       0.00000000
2
Lattice="30.0 0.0 0.0 0.0 18.0 0.0 0.0 0.0 17.0" Properties=species:S:1:pos:R:3:forces:R:3 batch_id=T generation=8 composition=V2 config_type=dimer_aa source_path=V-Cr-Ti-W-Zr/Fixed_Engrads/vcrtiwzr_fin_engrads/job_gen_6-2024-12-23/V/V2_dimer_idx_4 temperature=T date_processed=2025-01-03T17:40:39.863325 structure_type=T structure_index=4 adversarial_step=T structure_id=8520 energy=-9.882963371276855 stress="-4.0151628206807e-05 0.0 0.0 0.0 1.4605131354566824e-06 0.0 0.0 0.0 1.766347082624962e-06" calculation_info="_JSON {\"calculation_id\": 8520, \"calculator\": \"vasp\", \"calculation_source_path\": \"\", \"error\": null, \"status\": \"completed\", \"gpu_count\": null, \"parameters\": {}, \"date_started\": null, \"gpu_memory_mb\": null, \"model_version\": null, \"date_completed\": null, \"runtime_seconds\": null}" parent_id=8520 step=10 variance=0.9600000381469727 loss=0.9600000381469727 pbc="T T T"
V        0.00000000       0.00000000       0.00000000       0.15052184       0.00000000       0.00000000
V        1.80000000       0.00000000       0.00000000      -0.15052184       0.00000000       0.00000000
2
Lattice="30.0 0.0 0.0 0.0 18.0 0.0 0.0 0.0 17.0" Properties=species:S:1:pos:R:3:forces:R:3 batch_id=T generation=8 composition=V2 config_type=dimer_aa source_path=V-Cr-Ti-W-Zr/Fixed_Engrads/vcrtiwzr_fin_engrads/job_gen_6-2024-12-23/V/V2_dimer_idx_4 temperature=T date_processed=2025-01-03T17:40:39.863325 structure_type=T structure_index=4 adversarial_step=T structure_id=8520 energy=-9.882963371276855 stress="-4.0151628206807e-05 0.0 0.0 0.0 1.4605131354566824e-06 0.0 0.0 0.0 1.766347082624962e-06" calculation_info="_JSON {\"calculation_id\": 8520, \"calculator\": \"vasp\", \"calculation_source_path\": \"\", \"error\": null, \"status\": \"completed\", \"gpu_count\": null, \"parameters\": {}, \"date_started\": null, \"gpu_memory_mb\": null, \"model_version\": null, \"date_completed\": null, \"runtime_seconds\": null}" parent_id=8520 step=11 variance=0.9600000381469727 loss=0.9600000381469727 pbc="T T T"
V        0.00000000       0.00000000       0.00000000       0.15052184       0.00000000       0.00000000
V        1.80000000       0.00000000       0.00000000      -0.15052184       0.00000000       0.00000000
2
Lattice="30.0 0.0 0.0 0.0 18.0 0.0 0.0 0.0 17.0" Properties=species:S:1:pos:R:3:forces:R:3 batch_id=T generation=8 composition=V2 config_type=dimer_aa source_path=V-Cr-Ti-W-Zr/Fixed_Engrads/vcrtiwzr_fin_engrads/job_gen_6-2024-12-23/V/V2_dimer_idx_4 temperature=T date_processed=2025-01-03T17:40:39.863325 structure_type=T structure_index=4 adversarial_step=T structure_id=8520 energy=-9.882963371276855 stress="-4.0151628206807e-05 0.0 0.0 0.0 1.4605131354566824e-06 0.0 0.0 0.0 1.766347082624962e-06" calculation_info="_JSON {\"calculation_id\": 8520, \"calculator\": \"vasp\", \"calculation_source_path\": \"\", \"error\": null, \"status\": \"completed\", \"gpu_count\": null, \"parameters\": {}, \"date_started\": null, \"gpu_memory_mb\": null, \"model_version\": null, \"date_completed\": null, \"runtime_seconds\": null}" parent_id=8520 step=12 variance=0.9600000381469727 loss=0.9600000381469727 pbc="T T T"
V        0.00000000       0.00000000       0.00000000       0.15052184       0.00000000       0.00000000
V        1.80000000       0.00000000       0.00000000      -0.15052184       0.00000000       0.00000000
2
Lattice="30.0 0.0 0.0 0.0 18.0 0.0 0.0 0.0 17.0" Properties=species:S:1:pos:R:3:forces:R:3 batch_id=T generation=8 composition=V2 config_type=dimer_aa source_path=V-Cr-Ti-W-Zr/Fixed_Engrads/vcrtiwzr_fin_engrads/job_gen_6-2024-12-23/V/V2_dimer_idx_4 temperature=T date_processed=2025-01-03T17:40:39.863325 structure_type=T structure_index=4 adversarial_step=T structure_id=8520 energy=-9.882963371276855 stress="-4.0151628206807e-05 0.0 0.0 0.0 1.4605131354566824e-06 0.0 0.0 0.0 1.766347082624962e-06" calculation_info="_JSON {\"calculation_id\": 8520, \"calculator\": \"vasp\", \"calculation_source_path\": \"\", \"error\": null, \"status\": \"completed\", \"gpu_count\": null, \"parameters\": {}, \"date_started\": null, \"gpu_memory_mb\": null, \"model_version\": null, \"date_completed\": null, \"runtime_seconds\": null}" parent_id=8520 step=13 variance=0.9600000381469727 loss=0.9600000381469727 pbc="T T T"
V        0.00000000       0.00000000       0.00000000       0.15052184       0.00000000       0.00000000
V        1.80000000       0.00000000       0.00000000      -0.15052184       0.00000000       0.00000000
2
Lattice="30.0 0.0 0.0 0.0 18.0 0.0 0.0 0.0 17.0" Properties=species:S:1:pos:R:3:forces:R:3 batch_id=T generation=8 composition=V2 config_type=dimer_aa source_path=V-Cr-Ti-W-Zr/Fixed_Engrads/vcrtiwzr_fin_engrads/job_gen_6-2024-12-23/V/V2_dimer_idx_4 temperature=T date_processed=2025-01-03T17:40:39.863325 structure_type=T structure_index=4 adversarial_step=T structure_id=8520 energy=-9.882963371276855 stress="-4.0151628206807e-05 0.0 0.0 0.0 1.4605131354566824e-06 0.0 0.0 0.0 1.766347082624962e-06" calculation_info="_JSON {\"calculation_id\": 8520, \"calculator\": \"vasp\", \"calculation_source_path\": \"\", \"error\": null, \"status\": \"completed\", \"gpu_count\": null, \"parameters\": {}, \"date_started\": null, \"gpu_memory_mb\": null, \"model_version\": null, \"date_completed\": null, \"runtime_seconds\": null}" parent_id=8520 step=14 variance=0.9600000381469727 loss=0.9600000381469727 pbc="T T T"
V        0.00000000       0.00000000       0.00000000       0.15052184       0.00000000       0.00000000
V        1.80000000       0.00000000       0.00000000      -0.15052184       0.00000000       0.00000000
2
Lattice="30.0 0.0 0.0 0.0 18.0 0.0 0.0 0.0 17.0" Properties=species:S:1:pos:R:3:forces:R:3 batch_id=T generation=8 composition=V2 config_type=dimer_aa source_path=V-Cr-Ti-W-Zr/Fixed_Engrads/vcrtiwzr_fin_engrads/job_gen_6-2024-12-23/V/V2_dimer_idx_4 temperature=T date_processed=2025-01-03T17:40:39.863325 structure_type=T structure_index=4 adversarial_step=T structure_id=8520 energy=-9.882963371276855 stress="-4.0151628206807e-05 0.0 0.0 0.0 1.4605131354566824e-06 0.0 0.0 0.0 1.766347082624962e-06" calculation_info="_JSON {\"calculation_id\": 8520, \"calculator\": \"vasp\", \"calculation_source_path\": \"\", \"error\": null, \"status\": \"completed\", \"gpu_count\": null, \"parameters\": {}, \"date_started\": null, \"gpu_memory_mb\": null, \"model_version\": null, \"date_completed\": null, \"runtime_seconds\": null}" parent_id=8520 step=15 variance=0.9600000381469727 loss=0.9600000381469727 pbc="T T T"
V        0.00000000       0.00000000       0.00000000       0.15052184       0.00000000       0.00000000
V        1.80000000       0.00000000       0.00000000      -0.15052184       0.00000000       0.00000000
2
Lattice="30.0 0.0 0.0 0.0 18.0 0.0 0.0 0.0 17.0" Properties=species:S:1:pos:R:3:forces:R:3 batch_id=T generation=8 composition=V2 config_type=dimer_aa source_path=V-Cr-Ti-W-Zr/Fixed_Engrads/vcrtiwzr_fin_engrads/job_gen_6-2024-12-23/V/V2_dimer_idx_4 temperature=T date_processed=2025-01-03T17:40:39.863325 structure_type=T structure_index=4 adversarial_step=T structure_id=8520 energy=-9.882963371276855 stress="-4.0151628206807e-05 0.0 0.0 0.0 1.4605131354566824e-06 0.0 0.0 0.0 1.766347082624962e-06" calculation_info="_JSON {\"calculation_id\": 8520, \"calculator\": \"vasp\", \"calculation_source_path\": \"\", \"error\": null, \"status\": \"completed\", \"gpu_count\": null, \"parameters\": {}, \"date_started\": null, \"gpu_memory_mb\": null, \"model_version\": null, \"date_completed\": null, \"runtime_seconds\": null}" parent_id=8520 step=16 variance=0.9600000381469727 loss=0.9600000381469727 pbc="T T T"
V        0.00000000       0.00000000       0.00000000       0.15052184       0.00000000       0.00000000
V        1.80000000       0.00000000       0.00000000      -0.15052184       0.00000000       0.00000000
2
Lattice="30.0 0.0 0.0 0.0 18.0 0.0 0.0 0.0 17.0" Properties=species:S:1:pos:R:3:forces:R:3 batch_id=T generation=8 composition=V2 config_type=dimer_aa source_path=V-Cr-Ti-W-Zr/Fixed_Engrads/vcrtiwzr_fin_engrads/job_gen_6-2024-12-23/V/V2_dimer_idx_4 temperature=T date_processed=2025-01-03T17:40:39.863325 structure_type=T structure_index=4 adversarial_step=T structure_id=8520 energy=-9.882963371276855 stress="-4.0151628206807e-05 0.0 0.0 0.0 1.4605131354566824e-06 0.0 0.0 0.0 1.766347082624962e-06" calculation_info="_JSON {\"calculation_id\": 8520, \"calculator\": \"vasp\", \"calculation_source_path\": \"\", \"error\": null, \"status\": \"completed\", \"gpu_count\": null, \"parameters\": {}, \"date_started\": null, \"gpu_memory_mb\": null, \"model_version\": null, \"date_completed\": null, \"runtime_seconds\": null}" parent_id=8520 step=17 variance=0.9600000381469727 loss=0.9600000381469727 pbc="T T T"
V        0.00000000       0.00000000       0.00000000       0.15052184       0.00000000       0.00000000
V        1.80000000       0.00000000       0.00000000      -0.15052184       0.00000000       0.00000000
2
Lattice="30.0 0.0 0.0 0.0 18.0 0.0 0.0 0.0 17.0" Properties=species:S:1:pos:R:3:forces:R:3 batch_id=T generation=8 composition=V2 config_type=dimer_aa source_path=V-Cr-Ti-W-Zr/Fixed_Engrads/vcrtiwzr_fin_engrads/job_gen_6-2024-12-23/V/V2_dimer_idx_4 temperature=T date_processed=2025-01-03T17:40:39.863325 structure_type=T structure_index=4 adversarial_step=T structure_id=8520 energy=-9.882963371276855 stress="-4.0151628206807e-05 0.0 0.0 0.0 1.4605131354566824e-06 0.0 0.0 0.0 1.766347082624962e-06" calculation_info="_JSON {\"calculation_id\": 8520, \"calculator\": \"vasp\", \"calculation_source_path\": \"\", \"error\": null, \"status\": \"completed\", \"gpu_count\": null, \"parameters\": {}, \"date_started\": null, \"gpu_memory_mb\": null, \"model_version\": null, \"date_completed\": null, \"runtime_seconds\": null}" parent_id=8520 step=18 variance=0.9600000381469727 loss=0.9600000381469727 pbc="T T T"
V        0.00000000       0.00000000       0.00000000       0.15052184       0.00000000       0.00000000
V        1.80000000       0.00000000       0.00000000      -0.15052184       0.00000000       0.00000000
2
Lattice="30.0 0.0 0.0 0.0 18.0 0.0 0.0 0.0 17.0" Properties=species:S:1:pos:R:3:forces:R:3 batch_id=T generation=8 composition=V2 config_type=dimer_aa source_path=V-Cr-Ti-W-Zr/Fixed_Engrads/vcrtiwzr_fin_engrads/job_gen_6-2024-12-23/V/V2_dimer_idx_4 temperature=T date_processed=2025-01-03T17:40:39.863325 structure_type=T structure_index=4 adversarial_step=T structure_id=8520 energy=-9.882963371276855 stress="-4.0151628206807e-05 0.0 0.0 0.0 1.4605131354566824e-06 0.0 0.0 0.0 1.766347082624962e-06" calculation_info="_JSON {\"calculation_id\": 8520, \"calculator\": \"vasp\", \"calculation_source_path\": \"\", \"error\": null, \"status\": \"completed\", \"gpu_count\": null, \"parameters\": {}, \"date_started\": null, \"gpu_memory_mb\": null, \"model_version\": null, \"date_completed\": null, \"runtime_seconds\": null}" parent_id=8520 step=19 variance=0.9600000381469727 loss=0.9600000381469727 pbc="T T T"
V        0.00000000       0.00000000       0.00000000       0.15052184       0.00000000       0.00000000
V        1.80000000       0.00000000       0.00000000      -0.15052184       0.00000000       0.00000000
2
Lattice="30.0 0.0 0.0 0.0 18.0 0.0 0.0 0.0 17.0" Properties=species:S:1:pos:R:3:forces:R:3 batch_id=T generation=8 composition=V2 config_type=dimer_aa source_path=V-Cr-Ti-W-Zr/Fixed_Engrads/vcrtiwzr_fin_engrads/job_gen_6-2024-12-23/V/V2_dimer_idx_4 temperature=T date_processed=2025-01-03T17:40:39.863325 structure_type=T structure_index=4 adversarial_step=T structure_id=8520 energy=-9.882963371276855 stress="-4.0151628206807e-05 0.0 0.0 0.0 1.4605131354566824e-06 0.0 0.0 0.0 1.766347082624962e-06" calculation_info="_JSON {\"calculation_id\": 8520, \"calculator\": \"vasp\", \"calculation_source_path\": \"\", \"error\": null, \"status\": \"completed\", \"gpu_count\": null, \"parameters\": {}, \"date_started\": null, \"gpu_memory_mb\": null, \"model_version\": null, \"date_completed\": null, \"runtime_seconds\": null}" parent_id=8520 step=20 variance=0.9600000381469727 loss=0.9600000381469727 pbc="T T T"
V        0.00000000       0.00000000       0.00000000       0.15052184       0.00000000       0.00000000
V        1.80000000       0.00000000       0.00000000      -0.15052184       0.00000000       0.00000000
2
Lattice="30.0 0.0 0.0 0.0 18.0 0.0 0.0 0.0 17.0" Properties=species:S:1:pos:R:3:forces:R:3 batch_id=T generation=8 composition=V2 config_type=dimer_aa source_path=V-Cr-Ti-W-Zr/Fixed_Engrads/vcrtiwzr_fin_engrads/job_gen_6-2024-12-23/V/V2_dimer_idx_4 temperature=T date_processed=2025-01-03T17:40:39.863325 structure_type=T structure_index=4 adversarial_step=T structure_id=8520 energy=-9.768846702575683 stress="-4.0151628206807e-05 0.0 0.0 0.0 1.4605131354566824e-06 0.0 0.0 0.0 1.766347082624962e-06" calculation_info="_JSON {\"calculation_id\": 8520, \"calculator\": \"vasp\", \"calculation_source_path\": \"\", \"error\": null, \"status\": \"completed\", \"gpu_count\": null, \"parameters\": {}, \"date_started\": null, \"gpu_memory_mb\": null, \"model_version\": null, \"date_completed\": null, \"runtime_seconds\": null}" parent_id=8520 step=21 variance=1.5488545894378229e-15 loss=1.5488545894378229e-15 pbc="T T T"
V        0.01019029      -0.03425874      -0.03522807      -3.56741786      -0.12064818      -0.00245536
V        1.73879881       0.02420189      -0.03403831       3.56741786       0.12064818       0.00245536
2
Lattice="30.0 0.0 0.0 0.0 18.0 0.0 0.0 0.0 17.0" Properties=species:S:1:pos:R:3:forces:R:3 batch_id=T generation=8 composition=V2 config_type=dimer_aa source_path=V-Cr-Ti-W-Zr/Fixed_Engrads/vcrtiwzr_fin_engrads/job_gen_6-2024-12-23/V/V2_dimer_idx_4 temperature=T date_processed=2025-01-03T17:40:39.863325 structure_type=T structure_index=4 adversarial_step=T structure_id=8520 energy=-9.768620681762695 stress="-4.0151628206807e-05 0.0 0.0 0.0 1.4605131354566824e-06 0.0 0.0 0.0 1.766347082624962e-06" calculation_info="_JSON {\"calculation_id\": 8520, \"calculator\": \"vasp\", \"calculation_source_path\": \"\", \"error\": null, \"status\": \"completed\", \"gpu_count\": null, \"parameters\": {}, \"date_started\": null, \"gpu_memory_mb\": null, \"model_version\": null, \"date_completed\": null, \"runtime_seconds\": null}" parent_id=8520 step=22 variance=1.5487868268020425e-15 loss=1.5487868268020425e-15 pbc="T T T"
V        0.01024651      -0.03425910      -0.03522884      -3.57124448      -0.12079775      -0.00251693
V        1.73879168       0.02420912      -0.03401061       3.57124448       0.12079775       0.00251693
2
Lattice="30.0 0.0 0.0 0.0 18.0 0.0 0.0 0.0 17.0" Properties=species:S:1:pos:R:3:forces:R:3 batch_id=T generation=8 composition=V2 config_type=dimer_aa source_path=V-Cr-Ti-W-Zr/Fixed_Engrads/vcrtiwzr_fin_engrads/job_gen_6-2024-12-23/V/V2_dimer_idx_4 temperature=T date_processed=2025-01-03T17:40:39.863325 structure_type=T structure_index=4 adversarial_step=T structure_id=8520 energy=-9.76852626800537 stress="-4.0151628206807e-05 0.0 0.0 0.0 1.4605131354566824e-06 0.0 0.0 0.0 1.766347082624962e-06" calculation_info="_JSON {\"calculation_id\": 8520, \"calculator\": \"vasp\", \"calculation_source_path\": \"\", \"error\": null, \"status\": \"completed\", \"gpu_count\": null, \"parameters\": {}, \"date_started\": null, \"gpu_memory_mb\": null, \"model_version\": null, \"date_completed\": null, \"runtime_seconds\": null}" parent_id=8520 step=23 variance=7.494900094770344e-16 loss=7.494900094770344e-16 pbc="T T T"
V        0.01027647      -0.03425126      -0.03521840      -3.57285380      -0.12083032      -0.00255448
V        1.73879556       0.02420550      -0.03398256       3.57285380       0.12083032       0.00255448
2
Lattice="30.0 0.0 0.0 0.0 18.0 0.0 0.0 0.0 17.0" Properties=species:S:1:pos:R:3:forces:R:3 batch_id=T generation=8 composition=V2 config_type=dimer_aa source_path=V-Cr-Ti-W-Zr/Fixed_Engrads/vcrtiwzr_fin_engrads/job_gen_6-2024-12-23/V/V2_dimer_idx_4 temperature=T date_processed=2025-01-03T17:40:39.863325 structure_type=T structure_index=4 adversarial_step=T structure_id=8520 energy=-9.768480491638183 stress="-4.0151628206807e-05 0.0 0.0 0.0 1.4605131354566824e-06 0.0 0.0 0.0 1.766347082624962e-06" calculation_info="_JSON {\"calculation_id\": 8520, \"calculator\": \"vasp\", \"calculation_source_path\": \"\", \"error\": null, \"status\": \"completed\", \"gpu_count\": null, \"parameters\": {}, \"date_started\": null, \"gpu_memory_mb\": null, \"model_version\": null, \"date_completed\": null, \"runtime_seconds\": null}" parent_id=8520 step=24 variance=4.268901211527693e-15 loss=4.268901211527693e-15 pbc="T T T"
V        0.01029548      -0.03424605      -0.03520624      -3.57363892      -0.12085824      -0.00257361
V        1.73880160       0.02421097      -0.03396143       3.57363892       0.12085824       0.00257361
2