6
Lattice="0.068298101 3.673663611 3.761424831 3.756360692 -0.073422533 3.655087373 3.644446801 3.65686911 -0.005346868" Properties=species:S:1:pos:R:3:forces:R:3 generation=6 composition=W6 config_type=C15 source_path=V-Cr-Ti-W-Zr/Fixed_Engrads/vcrtiwzr_fin_engrads/job_gen_6-2024-12-23/W/W6_C15_idx_3042 date_processed=2025-02-12T16:53:56.459916 structure_index=3042 structure_id=21694 energy=-74.954185 stress="-0.008421936648446694 -0.013292254875973783 0.006440769304727081 -0.013292254875973783 -0.004470874126488814 0.004229184168607237 0.006440769304727081 0.004229184168607237 -0.0030476540080592845" calculation_info="_JSON {\"calculation_id\": 21693, \"calculator\": \"vasp\", \"calculation_source_path\": \"\", \"error\": null, \"status\": \"completed\", \"gpu_count\": null, \"parameters\": {}, \"date_started\": null, \"gpu_memory_mb\": null, \"model_version\": null, \"date_completed\": null, \"runtime_seconds\": null}" pbc="T T T"
W        0.93364000       0.90714000       0.92640000       0.00000000       0.00000000       0.00000000
W        2.81182000       0.87043000       2.75394000       0.00000000       0.00000000       0.00000000
W        2.75586000       2.73557000       0.92372000       0.00000000       0.00000000       0.00000000
W        0.96779000       2.74397000       2.80711000       0.00000000       0.00000000       0.00000000
W        3.73455000       3.62856000       3.70558000      -0.01738700      -0.02430800       0.04352800
W        5.60183000       5.44283000       5.55837000       0.01738700       0.02430800      -0.04352800
6
Lattice="0.068298101 3.673663611 3.761424831 3.756360692 -0.073422533 3.655087373 3.644446801 3.65686911 -0.005346868" Properties=species:S:1:pos:R:3:forces:R:3 generation=8 composition=W6 config_type=C15_aa source_path=V-Cr-Ti-W-Zr/Fixed_Engrads/vcrtiwzr_fin_engrads/job_gen_6-2024-12-23/W/W6_C15_idx_3042 date_processed=2025-02-12T16:53:56.459916 structure_index=3042 structure_id=21694 energy=-74.90230712890624 stress="-0.008421936648446694 -0.013292254875973783 0.006440769304727081 -0.013292254875973783 -0.004470874126488814 0.004229184168607237 0.006440769304727081 0.004229184168607237 -0.0030476540080592845" calculation_info="_JSON {\"calculation_id\": 21693, \"calculator\": \"vasp\", \"calculation_source_path\": \"\", \"error\": null, \"status\": \"completed\", \"gpu_count\": null, \"parameters\": {}, \"date_started\": null, \"gpu_memory_mb\": null, \"model_version\": null, \"date_completed\": null, \"runtime_seconds\": null}" parent_id=21694 step=0 variance=0.20384351909160614 loss=0.20384351909160614 pbc="T T T"
W        0.93364000       0.90714000       0.92640000      -0.00009127      -0.00007232      -0.00007313
W        2.81182000       0.87043000       2.75394000       0.00005346      -0.00005819       0.00002917
W        2.75586000       2.73557000       0.92372000       0.00004427       0.00009033      -0.00002781
W        0.96779000       2.74397000       2.80711000      -0.00003895       0.00006888      -0.00000071
W        3.73455000       3.62856000       3.70558000      -0.01100694      -0.01539577       0.02757652
W        5.60183000       5.44283000       5.55837000       0.01103950       0.01536707      -0.02750411
6
Lattice="0.068298101 3.673663611 3.761424831 3.756360692 -0.073422533 3.655087373 3.644446801 3.65686911 -0.005346868" Properties=species:S:1:pos:R:3:forces:R:3 generation=8 composition=W6 config_type=C15_aa source_path=V-Cr-Ti-W-Zr/Fixed_Engrads/vcrtiwzr_fin_engrads/job_gen_6-2024-12-23/W/W6_C15_idx_3042 date_processed=2025-02-12T16:53:56.459916 structure_index=3042 structure_id=21694 energy=-74.89891052246094 stress="-0.008421936648446694 -0.013292254875973783 0.006440769304727081 -0.013292254875973783 -0.004470874126488814 0.004229184168607237 0.006440769304727081 0.004229184168607237 -0.0030476540080592845" calculation_info="_JSON {\"calculation_id\": 21693, \"calculator\": \"vasp\", \"calculation_source_path\": \"\", \"error\": null, \"status\": \"completed\", \"gpu_count\": null, \"parameters\": {}, \"date_started\": null, \"gpu_memory_mb\": null, \"model_version\": null, \"date_completed\": null, \"runtime_seconds\": null}" parent_id=21694 step=1 variance=0.05710042640566826 loss=0.05710042640566826 pbc="T T T"
W        0.94364000       0.91714000       0.93640000      -0.02470604      -0.02512923       0.03428233
W        2.82182000       0.88043000       2.76394000      -0.05663415      -0.05802257      -0.00111121
W        2.76586000       2.74557000       0.93372000      -0.02869885      -0.02614524      -0.03245210
W        0.97779000       2.75397000       2.81711000      -0.05720316      -0.05759605      -0.00299231
W        3.72455000       3.61856000       3.71558000       0.18495053       0.18068357       0.03149121
W        5.61183000       5.45283000       5.56837000      -0.01770847      -0.01379044      -0.02921785
6
Lattice="0.068298101 3.673663611 3.761424831 3.756360692 -0.073422533 3.655087373 3.644446801 3.65686911 -0.005346868" Properties=species:S:1:pos:R:3:forces:R:3 generation=8 composition=W6 config_type=C15_aa source_path=V-Cr-Ti-W-Zr/Fixed_Engrads/vcrtiwzr_fin_engrads/job_gen_6-2024-12-23/W/W6_C15_idx_3042 date_processed=2025-02-12T16:53:56.459916 structure_index=3042 structure_id=21694 energy=-74.89508514404297 stress="-0.008421936648446694 -0.013292254875973783 0.006440769304727081 -0.013292254875973783 -0.004470874126488814 0.004229184168607237 0.006440769304727081 0.004229184168607237 -0.0030476540080592845" calculation_info="_JSON {\"calculation_id\": 21693, \"calculator\": \"vasp\", \"calculation_source_path\": \"\", \"error\": null, \"status\": \"completed\", \"gpu_count\": null, \"parameters\": {}, \"date_started\": null, \"gpu_memory_mb\": null, \"model_version\": null, \"date_completed\": null, \"runtime_seconds\": null}" parent_id=21694 step=2 variance=0.08961901813745499 loss=0.08961901813745499 pbc="T T T"
W        0.95037201       0.92386956       0.94311792      -0.04227449      -0.01839071       0.05148116
W        2.82863995       0.88759729       2.77087435      -0.08890144      -0.09445044      -0.00074717
W        2.77307034       2.75243100       0.94071124      -0.06463678      -0.03283422      -0.05856284
W        0.98475010       2.76076395       2.82396641      -0.10103945      -0.08035453      -0.01931726
W        3.71854161       3.62182456       3.72365444       0.30847859       0.21010061       0.01776954
W        5.61623752       5.45626631       5.57154152      -0.01162653       0.01592934       0.00937652
6
Lattice="0.068298101 3.673663611 3.761424831 3.756360692 -0.073422533 3.655087373 3.644446801 3.65686911 -0.005346868" Properties=species:S:1:pos:R:3:forces:R:3 generation=8 composition=W6 config_type=C15_aa source_path=V-Cr-Ti-W-Zr/Fixed_Engrads/vcrtiwzr_fin_engrads/job_gen_6-2024-12-23/W/W6_C15_idx_3042 date_processed=2025-02-12T16:53:56.459916 structure_index=3042 structure_id=21694 energy=-74.88901824951172 stress="-0.008421936648446694 -0.013292254875973783 0.006440769304727081 -0.013292254875973783 -0.004470874126488814 0.004229184168607237 0.006440769304727081 0.004229184168607237 -0.0030476540080592845" calculation_info="_JSON {\"calculation_id\": 21693, \"calculator\": \"vasp\", \"calculation_source_path\": \"\", \"error\": null, \"status\": \"completed\", \"gpu_count\": null, \"parameters\": {}, \"date_started\": null, \"gpu_memory_mb\": null, \"model_version\": null, \"date_completed\": null, \"runtime_seconds\": null}" parent_id=21694 step=3 variance=0.09798675030469894 loss=0.09798675030469894 pbc="T T T"
W        0.95570095       0.92892226       0.94824428      -0.06068156      -0.01730066       0.06762300
W        2.83398971       0.89260080       2.77543492      -0.12002637      -0.12856646       0.00925470
W        2.77928605       2.75737583       0.94571280      -0.10372546      -0.04254513      -0.07396538
W        0.99010884       2.76591090       2.82923082      -0.12874117      -0.11101267      -0.03654572
W        3.71451435       3.61665632       3.72780349       0.39600867       0.31038198       0.03242840
W        5.61758273       5.46237538       5.57718031       0.01716590      -0.01095713       0.00120499
6
Lattice="0.068298101 3.673663611 3.761424831 3.756360692 -0.073422533 3.655087373 3.644446801 3.65686911 -0.005346868" Properties=species:S:1:pos:R:3:forces:R:3 generation=8 composition=W6 config_type=C15_aa source_path=V-Cr-Ti-W-Zr/Fixed_Engrads/vcrtiwzr_fin_engrads/job_gen_6-2024-12-23/W/W6_C15_idx_3042 date_processed=2025-02-12T16:53:56.459916 structure_index=3042 structure_id=21694 energy=-74.88316345214844 stress="-0.008421936648446694 -0.013292254875973783 0.006440769304727081 -0.013292254875973783 -0.004470874126488814 0.004229184168607237 0.006440769304727081 0.004229184168607237 -0.0030476540080592845" calculation_info="_JSON {\"calculation_id\": 21693, \"calculator\": \"vasp\", \"calculation_source_path\": \"\", \"error\": null, \"status\": \"completed\", \"gpu_count\": null, \"parameters\": {}, \"date_started\": null, \"gpu_memory_mb\": null, \"model_version\": null, \"date_completed\": null, \"runtime_seconds\": null}" parent_id=21694 step=4 variance=0.12338617444038391 loss=0.12338617444038391 pbc="T T T"
W        0.95992881       0.93321978       0.95247218      -0.07633479      -0.02733573       0.07843576
W        2.83821259       0.89669968       2.77944032      -0.14301597      -0.14704911       0.00842738
W        2.78337318       2.76171706       0.94958891      -0.11686148      -0.05322592      -0.08398166
W        0.99423799       2.77016028       2.83321653      -0.15242404      -0.13284828      -0.03827127
W        3.70966740       3.61534651       3.73033586       0.48348561       0.36144233       0.05373948
W        5.62156865       5.46481683       5.58285460       0.00515062      -0.00098329      -0.01834973
6
Lattice="0.068298101 3.673663611 3.761424831 3.756360692 -0.073422533 3.655087373 3.644446801 3.65686911 -0.005346868" Properties=species:S:1:pos:R:3:forces:R:3 generation=8 composition=W6 config_type=C15_aa source_path=V-Cr-Ti-W-Zr/Fixed_Engrads/vcrtiwzr_fin_engrads/job_gen_6-2024-12-23/W/W6_C15_idx_3042 date_processed=2025-02-12T16:53:56.459916 structure_index=3042 structure_id=21694 energy=-74.87775421142578 stress="-0.008421936648446694 -0.013292254875973783 0.006440769304727081 -0.013292254875973783 -0.004470874126488814 0.004229184168607237 0.006440769304727081 0.004229184168607237 -0.0030476540080592845" calculation_info="_JSON {\"calculation_id\": 21693, \"calculator\": \"vasp\", \"calculation_source_path\": \"\", \"error\": null, \"status\": \"completed\", \"gpu_count\": null, \"parameters\": {}, \"date_started\": null, \"gpu_memory_mb\": null, \"model_version\": null, \"date_completed\": null, \"runtime_seconds\": null}" parent_id=21694 step=5 variance=0.10207221657037735 loss=0.10207221657037735 pbc="T T T"
W        0.96344611       0.93687786       0.95616012      -0.08356617      -0.03279193       0.08382596
W        2.84173033       0.90037472       2.78328944      -0.15960056      -0.16581838      -0.00252431
W        2.78680876       2.76555623       0.95310004      -0.12906665      -0.06742792      -0.09791498
W        0.99777974       2.77374903       2.83671380      -0.17851774      -0.14672442      -0.04377139
W        3.70528336       3.61560355       3.73357275       0.56012189       0.39012057       0.05832823
W        5.62529949       5.46568155       5.58431278      -0.00937070       0.02264219       0.00205647
6
Lattice="0.068298101 3.673663611 3.761424831 3.756360692 -0.073422533 3.655087373 3.644446801 3.65686911 -0.005346868" Properties=species:S:1:pos:R:3:forces:R:3 generation=8 composition=W6 config_type=C15_aa source_path=V-Cr-Ti-W-Zr/Fixed_Engrads/vcrtiwzr_fin_engrads/job_gen_6-2024-12-23/W/W6_C15_idx_3042 date_processed=2025-02-12T16:53:56.459916 structure_index=3042 structure_id=21694 energy=-74.87137603759766 stress="-0.008421936648446694 -0.013292254875973783 0.006440769304727081 -0.013292254875973783 -0.004470874126488814 0.004229184168607237 0.006440769304727081 0.004229184168607237 -0.0030476540080592845" calculation_info="_JSON {\"calculation_id\": 21693, \"calculator\": \"vasp\", \"calculation_source_path\": \"\", \"error\": null, \"status\": \"completed\", \"gpu_count\": null, \"parameters\": {}, \"date_started\": null, \"gpu_memory_mb\": null, \"model_version\": null, \"date_completed\": null, \"runtime_seconds\": null}" parent_id=21694 step=6 variance=0.12450265139341354 loss=0.12450265139341354 pbc="T T T"
W        0.96655199       0.93991236       0.95933132      -0.09287003      -0.03574935       0.08770654
W        2.84478444       0.90317346       2.78619068      -0.17519873      -0.18192455      -0.00632964
W        2.79019908       2.76861776       0.95591516      -0.14848930      -0.07967700      -0.10544936
W        1.00080319       2.77674397       2.83977275      -0.19499907      -0.16213773      -0.05420648
W        3.70186304       3.61264315       3.73545381       0.62197983       0.44707966       0.07328059
W        5.62758561       5.46877793       5.58676900      -0.01042272       0.01240891       0.00499834
6
Lattice="0.068298101 3.673663611 3.761424831 3.756360692 -0.073422533 3.655087373 3.644446801 3.65686911 -0.005346868" Properties=species:S:1:pos:R:3:forces:R:3 generation=8 composition=W6 config_type=C15_aa source_path=V-Cr-Ti-W-Zr/Fixed_Engrads/vcrtiwzr_fin_engrads/job_gen_6-2024-12-23/W/W6_C15_idx_3042 date_processed=2025-02-12T16:53:56.459916 structure_index=3042 structure_id=21694 energy=-74.86436767578125 stress="-0.008421936648446694 -0.013292254875973783 0.006440769304727081 -0.013292254875973783 -0.004470874126488814 0.004229184168607237 0.006440769304727081 0.004229184168607237 -0.0030476540080592845" calculation_info="_JSON {\"calculation_id\": 21693, \"calculator\": \"vasp\", \"calculation_source_path\": \"\", \"error\": null, \"status\": \"completed\", \"gpu_count\": null, \"parameters\": {}, \"date_started\": null, \"gpu_memory_mb\": null, \"model_version\": null, \"date_completed\": null, \"runtime_seconds\": null}" parent_id=21694 step=7 variance=0.11470331996679306 loss=0.11470331996679306 pbc="T T T"
W        0.96935687       0.94242478       0.96208337      -0.10411523      -0.03387452       0.09020086
W        2.84750379       0.90527209       2.78827307      -0.19003129      -0.19643064      -0.00252122
W        2.79372389       2.77101844       0.95820010      -0.17721753      -0.08906764      -0.10805993
W        1.00345754       2.77926347       2.84252701      -0.20307183      -0.17834680      -0.07095285
W        3.69952815       3.60772671       3.73623851       0.66906261       0.52005017       0.09630428
W        5.62821689       5.47346456       5.58993780       0.00537324      -0.02233055      -0.00497111
6
Lattice="0.068298101 3.673663611 3.761424831 3.756360692 -0.073422533 3.655087373 3.644446801 3.65686911 -0.005346868" Properties=species:S:1:pos:R:3:forces:R:3 generation=8 composition=W6 config_type=C15_aa source_path=V-Cr-Ti-W-Zr/Fixed_Engrads/vcrtiwzr_fin_engrads/job_gen_6-2024-12-23/W/W6_C15_idx_3042 date_processed=2025-02-12T16:53:56.459916 structure_index=3042 structure_id=21694 energy=-74.85836791992188 stress="-0.008421936648446694 -0.013292254875973783 0.006440769304727081 -0.013292254875973783 -0.004470874126488814 0.004229184168607237 0.006440769304727081 0.004229184168607237 -0.0030476540080592845" calculation_info="_JSON {\"calculation_id\": 21693, \"calculator\": \"vasp\", \"calculation_source_path\": \"\", \"error\": null, \"status\": \"completed\", \"gpu_count\": null, \"parameters\": {}, \"date_started\": null, \"gpu_memory_mb\": null, \"model_version\": null, \"date_completed\": null, \"runtime_seconds\": null}" parent_id=21694 step=8 variance=0.11039120703935623 loss=0.11039120703935623 pbc="T T T"
W        0.97173987       0.94475642       0.96452921      -0.11028792      -0.03508045       0.09243464
W        2.84986631       0.90740778       2.79048028      -0.20236108      -0.20922384      -0.00689424
W        2.79644363       2.77341341       0.96030825      -0.19520405      -0.10088316      -0.11363578
W        1.00577874       2.78156818       2.84485577      -0.21580735      -0.19035962      -0.08086976
W        3.69683748       3.60567613       3.73714478       0.71714246       0.56090033       0.11364554
W        5.62977922       5.47538645       5.59193477       0.00651780      -0.02535335      -0.00468048
6
Lattice="0.068298101 3.673663611 3.761424831 3.756360692 -0.073422533 3.655087373 3.644446801 3.65686911 -0.005346868" Properties=species:S:1:pos:R:3:forces:R:3 generation=8 composition=W6 config_type=C15_aa source_path=V-Cr-Ti-W-Zr/Fixed_Engrads/vcrtiwzr_fin_engrads/job_gen_6-2024-12-23/W/W6_C15_idx_3042 date_processed=2025-02-12T16:53:56.459916 structure_index=3042 structure_id=21694 energy=-74.85331268310547 stress="-0.008421936648446694 -0.013292254875973783 0.006440769304727081 -0.013292254875973783 -0.004470874126488814 0.004229184168607237 0.006440769304727081 0.004229184168607237 -0.0030476540080592845" calculation_info="_JSON {\"calculation_id\": 21693, \"calculator\": \"vasp\", \"calculation_source_path\": \"\", \"error\": null, \"status\": \"completed\", \"gpu_count\": null, \"parameters\": {}, \"date_started\": null, \"gpu_memory_mb\": null, \"model_version\": null, \"date_completed\": null, \"runtime_seconds\": null}" parent_id=21694 step=9 variance=0.15628498792648315 loss=0.15628498792648315 pbc="T T T"
W        0.97377124       0.94693851       0.96670617      -0.11255598      -0.03907155       0.09489487
W        2.85193727       0.90956433       2.79276191      -0.21296676      -0.22026639      -0.01751925
W        2.79849055       2.77580089       0.96224662      -0.20411877      -0.11457495      -0.12127259
W        1.00781962       2.78370012       2.84681105      -0.23214476      -0.19939756      -0.08468804
W        3.69385520       3.60568246       3.73802444       0.76595527       0.57887071       0.12775162
W        5.63208213       5.47531238       5.59324937      -0.00416879      -0.00556028       0.00083357
6
Lattice="0.068298101 3.673663611 3.761424831 3.756360692 -0.073422533 3.655087373 3.644446801 3.65686911 -0.005346868" Properties=species:S:1:pos:R:3:forces:R:3 generation=8 composition=W6 config_type=C15_aa source_path=V-Cr-Ti-W-Zr/Fixed_Engrads/vcrtiwzr_fin_engrads/job_gen_6-2024-12-23/W/W6_C15_idx_3042 date_processed=2025-02-12T16:53:56.459916 structure_index=3042 structure_id=21694 energy=-74.84876708984375 stress="-0.008421936648446694 -0.013292254875973783 0.006440769304727081 -0.013292254875973783 -0.004470874126488814 0.004229184168607237 0.006440769304727081 0.004229184168607237 -0.0030476540080592845" calculation_info="_JSON {\"calculation_id\": 21693, \"calculator\": \"vasp\", \"calculation_source_path\": \"\", \"error\": null, \"status\": \"completed\", \"gpu_count\": null, \"parameters\": {}, \"date_started\": null, \"gpu_memory_mb\": null, \"model_version\": null, \"date_completed\": null, \"runtime_seconds\": null}" parent_id=21694 step=10 variance=0.08950484544038773 loss=0.08950484544038773 pbc="T T T"
W        0.97556078       0.94887231       0.96872744      -0.10959174      -0.03862289       0.09627514
W        2.85378428       0.91165451       2.79510490      -0.22160432      -0.23379107      -0.03224738
W        2.80051298       2.77802019       0.96418606      -0.21644190      -0.13049768      -0.13096674
W        1.00972635       2.78560031       2.84871203      -0.25028440      -0.20544842      -0.09243380
W        3.69134076       3.60605027       3.73967401       0.80787146       0.59109724       0.13081041
W        5.63382567       5.47482591       5.59243119      -0.00994913       0.01726285       0.02856227
6
Lattice="0.068298101 3.673663611 3.761424831 3.756360692 -0.073422533 3.655087373 3.644446801 3.65686911 -0.005346868" Properties=species:S:1:pos:R:3:forces:R:3 generation=8 composition=W6 config_type=C15_aa source_path=V-Cr-Ti-W-Zr/Fixed_Engrads/vcrtiwzr_fin_engrads/job_gen_6-2024-12-23/W/W6_C15_idx_3042 date_processed=2025-02-12T16:53:56.459916 structure_index=3042 structure_id=21694 energy=-74.84367218017579 stress="-0.008421936648446694 -0.013292254875973783 0.006440769304727081 -0.013292254875973783 -0.004470874126488814 0.004229184168607237 0.006440769304727081 0.004229184168607237 -0.0030476540080592845" calculation_info="_JSON {\"calculation_id\": 21693, \"calculator\": \"vasp\", \"calculation_source_path\": \"\", \"error\": null, \"status\": \"completed\", \"gpu_count\": null, \"parameters\": {}, \"date_started\": null, \"gpu_memory_mb\": null, \"model_version\": null, \"date_completed\": null, \"runtime_seconds\": null}" parent_id=21694 step=11 variance=0.09346451610326767 loss=0.09346451610326767 pbc="T T T"
W        0.97721678       0.95056100       0.97043410      -0.11180604      -0.03933536       0.09759091
W        2.85549400       0.91321076       2.79665901      -0.23154326      -0.24262321      -0.03832206
W        2.80248124       2.77985409       0.96558116      -0.23086023      -0.14296842      -0.13506383
W        1.01134721       2.78728297       2.85024299      -0.26002201      -0.21488400      -0.09959591
W        3.68916905       3.60502788       3.73936265       0.84484071       0.61577994       0.15274774
W        5.63499882       5.47540046       5.59427563      -0.01060919       0.02403107       0.02264308
6
Lattice="0.068298101 3.673663611 3.761424831 3.756360692 -0.073422533 3.655087373 3.644446801 3.65686911 -0.005346868" Properties=species:S:1:pos:R:3:forces:R:3 generation=8 composition=W6 config_type=C15_aa source_path=V-Cr-Ti-W-Zr/Fixed_Engrads/vcrtiwzr_fin_engrads/job_gen_6-2024-12-23/W/W6_C15_idx_3042 date_processed=2025-02-12T16:53:56.459916 structure_index=3042 structure_id=21694 energy=-74.83803100585938 stress="-0.008421936648446694 -0.013292254875973783 0.006440769304727081 -0.013292254875973783 -0.004470874126488814 0.004229184168607237 0.006440769304727081 0.004229184168607237 -0.0030476540080592845" calculation_info="_JSON {\"calculation_id\": 21693, \"calculator\": \"vasp\", \"calculation_source_path\": \"\", \"error\": null, \"status\": \"completed\", \"gpu_count\": null, \"parameters\": {}, \"date_started\": null, \"gpu_memory_mb\": null, \"model_version\": null, \"date_completed\": null, \"runtime_seconds\": null}" parent_id=21694 step=12 variance=0.1386353224515915 loss=0.1386353224515915 pbc="T T T"
W        0.97875717       0.95201340       0.97189813      -0.11741807      -0.03946984       0.09791329
W        2.85707273       0.91429881       2.79759064      -0.24196525      -0.24800888      -0.03807068
W        2.80448488       2.78133755       0.96655035      -0.24908105      -0.15306041      -0.13461120
W        1.01273252       2.78875339       2.85151880      -0.26251766      -0.22630176      -0.10845180
W        3.68737399       3.60271064       3.73777739       0.87664402       0.65194762       0.18620035
W        5.63560502       5.47706926       5.59758566      -0.00566200       0.01489319      -0.00297988
6
Lattice="0.068298101 3.673663611 3.761424831 3.756360692 -0.073422533 3.655087373 3.644446801 3.65686911 -0.005346868" Properties=species:S:1:pos:R:3:forces:R:3 generation=8 composition=W6 config_type=C15_aa source_path=V-Cr-Ti-W-Zr/Fixed_Engrads/vcrtiwzr_fin_engrads/job_gen_6-2024-12-23/W/W6_C15_idx_3042 date_processed=2025-02-12T16:53:56.459916 structure_index=3042 structure_id=21694 energy=-74.83207702636719 stress="-0.008421936648446694 -0.013292254875973783 0.006440769304727081 -0.013292254875973783 -0.004470874126488814 0.004229184168607237 0.006440769304727081 0.004229184168607237 -0.0030476540080592845" calculation_info="_JSON {\"calculation_id\": 21693, \"calculator\": \"vasp\", \"calculation_source_path\": \"\", \"error\": null, \"status\": \"completed\", \"gpu_count\": null, \"parameters\": {}, \"date_started\": null, \"gpu_memory_mb\": null, \"model_version\": null, \"date_completed\": null, \"runtime_seconds\": null}" parent_id=21694 step=13 variance=0.12962408363819122 loss=0.12962408363819122 pbc="T T T"
W        0.98018703       0.95321471       0.97325409      -0.12161402      -0.03470986       0.09711348
W        2.85851689       0.91511041       2.79830962      -0.25156084      -0.25400275      -0.03602756
W        2.80674537       2.78253750       0.96740667      -0.27517265      -0.16324666      -0.13203111
W        1.01401032       2.79000145       2.85280921      -0.26123813      -0.23700786      -0.12337135
W        3.68621600       3.59937860       3.73625502       0.90071172       0.69667917       0.21772480
W        5.63536238       5.47968411       5.60031579       0.00887393      -0.00771214      -0.02340833
6
Lattice="0.068298101 3.673663611 3.761424831 3.756360692 -0.073422533 3.655087373 3.644446801 3.65686911 -0.005346868" Properties=species:S:1:pos:R:3:forces:R:3 generation=8 composition=W6 config_type=C15_aa source_path=V-Cr-Ti-W-Zr/Fixed_Engrads/vcrtiwzr_fin_engrads/job_gen_6-2024-12-23/W/W6_C15_idx_3042 date_processed=2025-02-12T16:53:56.459916 structure_index=3042 structure_id=21694 energy=-74.8266845703125 stress="-0.008421936648446694 -0.013292254875973783 0.006440769304727081 -0.013292254875973783 -0.004470874126488814 0.004229184168607237 0.006440769304727081 0.004229184168607237 -0.0030476540080592845" calculation_info="_JSON {\"calculation_id\": 21693, \"calculator\": \"vasp\", \"calculation_source_path\": \"\", \"error\": null, \"status\": \"completed\", \"gpu_count\": null, \"parameters\": {}, \"date_started\": null, \"gpu_memory_mb\": null, \"model_version\": null, \"date_completed\": null, \"runtime_seconds\": null}" parent_id=21694 step=14 variance=0.1112690195441246 loss=0.1112690195441246 pbc="T T T"
W        0.98141796       0.95432715       0.97454452      -0.12067108      -0.02926379       0.09621382
W        2.85979192       0.91601158       2.79930757      -0.25964028      -0.26060766      -0.04050677
W        2.80875255       2.78378696       0.96833230      -0.29853153      -0.17663972      -0.13142273
W        1.01518928       2.79114530       2.85403156      -0.26356322      -0.24471577      -0.13714851
W        3.68490458       3.59707258       3.73540907       0.92518502       0.73006904       0.24066913
W        5.63553576       5.48132376       5.60158863       0.01722086      -0.01884219      -0.02780478
6
Lattice="0.068298101 3.673663611 3.761424831 3.756360692 -0.073422533 3.655087373 3.644446801 3.65686911 -0.005346868" Properties=species:S:1:pos:R:3:forces:R:3 generation=8 composition=W6 config_type=C15_aa source_path=V-Cr-Ti-W-Zr/Fixed_Engrads/vcrtiwzr_fin_engrads/job_gen_6-2024-12-23/W/W6_C15_idx_3042 date_processed=2025-02-12T16:53:56.459916 structure_index=3042 structure_id=21694 energy=-74.82192687988281 stress="-0.008421936648446694 -0.013292254875973783 0.006440769304727081 -0.013292254875973783 -0.004470874126488814 0.004229184168607237 0.006440769304727081 0.004229184168607237 -0.0030476540080592845" calculation_info="_JSON {\"calculation_id\": 21693, \"calculator\": \"vasp\", \"calculation_source_path\": \"\", \"error\": null, \"status\": \"completed\", \"gpu_count\": null, \"parameters\": {}, \"date_started\": null, \"gpu_memory_mb\": null, \"model_version\": null, \"date_completed\": null, \"runtime_seconds\": null}" parent_id=21694 step=15 variance=0.1200772225856781 loss=0.1200772225856781 pbc="T T T"
W        0.98245630       0.95538280       0.97576497      -0.11542754      -0.02457243       0.09545022
W        2.86090932       0.91699591       2.80055369      -0.26649794      -0.26665449      -0.05116839
W        2.81043046       2.78511582       0.96928155      -0.31733316      -0.19308951      -0.13214242
W        1.01625453       2.79220992       2.85513754      -0.26914981      -0.24996288      -0.14809141
W        3.68329118       3.59584678       3.73503463       0.95167524       0.75181067       0.25736815
W        5.63634655       5.48192005       5.60186473       0.01673320      -0.01753138      -0.02141616
6
Lattice="0.068298101 3.673663611 3.761424831 3.756360692 -0.073422533 3.655087373 3.644446801 3.65686911 -0.005346868" Properties=species:S:1:pos:R:3:forces:R:3 generation=8 composition=W6 config_type=C15_aa source_path=V-Cr-Ti-W-Zr/Fixed_Engrads/vcrtiwzr_fin_engrads/job_gen_6-2024-12-23/W/W6_C15_idx_3042 date_processed=2025-02-12T16:53:56.459916 structure_index=3042 structure_id=21694 energy=-74.81776885986328 stress="-0.008421936648446694 -0.013292254875973783 0.006440769304727081 -0.013292254875973783 -0.004470874126488814 0.004229184168607237 0.006440769304727081 0.004229184168607237 -0.0030476540080592845" calculation_info="_JSON {\"calculation_id\": 21693, \"calculator\": \"vasp\", \"calculation_source_path\": \"\", \"error\": null, \"status\": \"completed\", \"gpu_count\": null, \"parameters\": {}, \"date_started\": null, \"gpu_memory_mb\": null, \"model_version\": null, \"date_completed\": null, \"runtime_seconds\": null}" parent_id=21694 step=16 variance=0.15484179556369781 loss=0.15484179556369781 pbc="T T T"
W        0.98331440       0.95639544       0.97692390      -0.10627754      -0.02100292       0.09462009
W        2.86188002       0.91804912       2.80202248      -0.27220279      -0.27167290      -0.06765023
W        2.81178217       2.78653041       0.97023658      -0.33142331      -0.21256006      -0.13386020
W        1.01720436       2.79320436       2.85611417      -0.27759051      -0.25293604      -0.15587290
W        3.68136713       3.59562858       3.73498464       0.98035765       0.76284373       0.26944694
W        5.63782234       5.48155398       5.60135495       0.00713642      -0.00467187      -0.00668390
6