2
Lattice="32.544048786 0.0 0.0 0.0 19.526429272 0.0 0.0 0.0 18.441627645" Properties=species:S:1:pos:R:3:forces:R:3 generation=7 config_type=dimer source_path=/home/myless/Calc_VASP/MRS/job_gen_7-2025-04-10/Ti/Ti2_dimer_idx_14 formula_string=Ti2 composition_str=Ti2 structure_index=14 date_added_to_db=2025-04-14T00:33:09.162762 structure_id=25114 energy=-3.7696157 stress="0.00036485989897175764 0.0 0.0 0.0 -1.9910414111567595e-05 0.0 0.0 0.0 -1.1384512645611062e-05" calculation_info="_JSON {\"calculation_id\": 25109, \"calculator\": \"vasp\", \"calculation_source_path\": \"/home/myless/Calc_VASP/MRS/job_gen_7-2025-04-10/Ti/Ti2_dimer_idx_14\", \"nbands\": 16, \"parser\": \"ase_outcar\", \"potcar\": \"PAW_PBE Ti_pv 07Sep2000\", \"kpoints\": [1, 2, 3], \"date_run\": \"2025.03.17  18:33:26\", \"vasp_version\": \"vasp.6.4.2 20Jul23\", \"resources_used\": {\"nodes\": 1, \"mpi_ranks\": 4, \"gpus_detected\": true, \"threads_per_rank\": 8}, \"calculation_type\": \"static\"}" pbc="T T T"
Ti       0.00000000       0.00000000       0.00000000       1.35500300       0.00000000       0.00000000
Ti       3.47137000       0.00000000       0.00000000      -1.35500300       0.00000000       0.00000000
2
Lattice="32.544048786 0.0 0.0 0.0 19.526429272 0.0 0.0 0.0 18.441627645" Properties=species:S:1:pos:R:3:forces:R:3 generation=8 config_type=dimer_aa source_path=/home/myless/Calc_VASP/MRS/job_gen_7-2025-04-10/Ti/Ti2_dimer_idx_14 formula_string=Ti2 composition_str=Ti2 structure_index=14 date_added_to_db=2025-04-14T00:33:09.162762 structure_id=25114 energy=-4.215950298309326 stress="0.00036485989897175764 0.0 0.0 0.0 -1.9910414111567595e-05 0.0 0.0 0.0 -1.1384512645611062e-05" calculation_info="_JSON {\"calculation_id\": 25109, \"calculator\": \"vasp\", \"calculation_source_path\": \"/home/myless/Calc_VASP/MRS/job_gen_7-2025-04-10/Ti/Ti2_dimer_idx_14\", \"nbands\": 16, \"parser\": \"ase_outcar\", \"potcar\": \"PAW_PBE Ti_pv 07Sep2000\", \"kpoints\": [1, 2, 3], \"date_run\": \"2025.03.17  18:33:26\", \"vasp_version\": \"vasp.6.4.2 20Jul23\", \"resources_used\": {\"nodes\": 1, \"mpi_ranks\": 4, \"gpus_detected\": true, \"threads_per_rank\": 8}, \"calculation_type\": \"static\"}" parent_id=25114 step=0 variance=0.9600000381469727 loss=0.9600000381469727 pbc="T T T"
Ti       0.00000000       0.00000000       0.00000000       0.01178926       0.00000000       0.00000000
Ti       3.47137000       0.00000000       0.00000000      -0.01178926       0.00000000       0.00000000
2
Lattice="32.544048786 0.0 0.0 0.0 19.526429272 0.0 0.0 0.0 18.441627645" Properties=species:S:1:pos:R:3:forces:R:3 generation=8 config_type=dimer_aa source_path=/home/myless/Calc_VASP/MRS/job_gen_7-2025-04-10/Ti/Ti2_dimer_idx_14 formula_string=Ti2 composition_str=Ti2 structure_index=14 date_added_to_db=2025-04-14T00:33:09.162762 structure_id=25114 energy=-4.215950298309326 stress="0.00036485989897175764 0.0 0.0 0.0 -1.9910414111567595e-05 0.0 0.0 0.0 -1.1384512645611062e-05" calculation_info="_JSON {\"calculation_id\": 25109, \"calculator\": \"vasp\", \"calculation_source_path\": \"/home/myless/Calc_VASP/MRS/job_gen_7-2025-04-10/Ti/Ti2_dimer_idx_14\", \"nbands\": 16, \"parser\": \"ase_outcar\", \"potcar\": \"PAW_PBE Ti_pv 07Sep2000\", \"kpoints\": [1, 2, 3], \"date_run\": \"2025.03.17  18:33:26\", \"vasp_version\": \"vasp.6.4.2 20Jul23\", \"resources_used\": {\"nodes\": 1, \"mpi_ranks\": 4, \"gpus_detected\": true, \"threads_per_rank\": 8}, \"calculation_type\": \"static\"}" parent_id=25114 step=1 variance=0.9600000381469727 loss=0.9600000381469727 pbc="T T T"
Ti       0.00000000       0.00000000       0.00000000       0.01178926       0.00000000       0.00000000
Ti       3.47137000       0.00000000       0.00000000      -0.01178926       0.00000000       0.00000000
2
Lattice="32.544048786 0.0 0.0 0.0 19.526429272 0.0 0.0 0.0 18.441627645" Properties=species:S:1:pos:R:3:forces:R:3 generation=8 config_type=dimer_aa source_path=/home/myless/Calc_VASP/MRS/job_gen_7-2025-04-10/Ti/Ti2_dimer_idx_14 formula_string=Ti2 composition_str=Ti2 structure_index=14 date_added_to_db=2025-04-14T00:33:09.162762 structure_id=25114 energy=-4.215950298309326 stress="0.00036485989897175764 0.0 0.0 0.0 -1.9910414111567595e-05 0.0 0.0 0.0 -1.1384512645611062e-05" calculation_info="_JSON {\"calculation_id\": 25109, \"calculator\": \"vasp\", \"calculation_source_path\": \"/home/myless/Calc_VASP/MRS/job_gen_7-2025-04-10/Ti/Ti2_dimer_idx_14\", \"nbands\": 16, \"parser\": \"ase_outcar\", \"potcar\": \"PAW_PBE Ti_pv 07Sep2000\", \"kpoints\": [1, 2, 3], \"date_run\": \"2025.03.17  18:33:26\", \"vasp_version\": \"vasp.6.4.2 20Jul23\", \"resources_used\": {\"nodes\": 1, \"mpi_ranks\": 4, \"gpus_detected\": true, \"threads_per_rank\": 8}, \"calculation_type\": \"static\"}" parent_id=25114 step=2 variance=0.9600000381469727 loss=0.9600000381469727 pbc="T T T"
Ti       0.00000000       0.00000000       0.00000000       0.01178926       0.00000000       0.00000000
Ti       3.47137000       0.00000000       0.00000000      -0.01178926       0.00000000       0.00000000
2
Lattice="32.544048786 0.0 0.0 0.0 19.526429272 0.0 0.0 0.0 18.441627645" Properties=species:S:1:pos:R:3:forces:R:3 generation=8 config_type=dimer_aa source_path=/home/myless/Calc_VASP/MRS/job_gen_7-2025-04-10/Ti/Ti2_dimer_idx_14 formula_string=Ti2 composition_str=Ti2 structure_index=14 date_added_to_db=2025-04-14T00:33:09.162762 structure_id=25114 energy=-4.215950298309326 stress="0.00036485989897175764 0.0 0.0 0.0 -1.9910414111567595e-05 0.0 0.0 0.0 -1.1384512645611062e-05" calculation_info="_JSON {\"calculation_id\": 25109, \"calculator\": \"vasp\", \"calculation_source_path\": \"/home/myless/Calc_VASP/MRS/job_gen_7-2025-04-10/Ti/Ti2_dimer_idx_14\", \"nbands\": 16, \"parser\": \"ase_outcar\", \"potcar\": \"PAW_PBE Ti_pv 07Sep2000\", \"kpoints\": [1, 2, 3], \"date_run\": \"2025.03.17  18:33:26\", \"vasp_version\": \"vasp.6.4.2 20Jul23\", \"resources_used\": {\"nodes\": 1, \"mpi_ranks\": 4, \"gpus_detected\": true, \"threads_per_rank\": 8}, \"calculation_type\": \"static\"}" parent_id=25114 step=3 variance=0.9600000381469727 loss=0.9600000381469727 pbc="T T T"
Ti       0.00000000       0.00000000       0.00000000       0.01178926       0.00000000       0.00000000
Ti       3.47137000       0.00000000       0.00000000      -0.01178926       0.00000000       0.00000000
2
Lattice="32.544048786 0.0 0.0 0.0 19.526429272 0.0 0.0 0.0 18.441627645" Properties=species:S:1:pos:R:3:forces:R:3 generation=8 config_type=dimer_aa source_path=/home/myless/Calc_VASP/MRS/job_gen_7-2025-04-10/Ti/Ti2_dimer_idx_14 formula_string=Ti2 composition_str=Ti2 structure_index=14 date_added_to_db=2025-04-14T00:33:09.162762 structure_id=25114 energy=-4.215950298309326 stress="0.00036485989897175764 0.0 0.0 0.0 -1.9910414111567595e-05 0.0 0.0 0.0 -1.1384512645611062e-05" calculation_info="_JSON {\"calculation_id\": 25109, \"calculator\": \"vasp\", \"calculation_source_path\": \"/home/myless/Calc_VASP/MRS/job_gen_7-2025-04-10/Ti/Ti2_dimer_idx_14\", \"nbands\": 16, \"parser\": \"ase_outcar\", \"potcar\": \"PAW_PBE Ti_pv 07Sep2000\", \"kpoints\": [1, 2, 3], \"date_run\": \"2025.03.17  18:33:26\", \"vasp_version\": \"vasp.6.4.2 20Jul23\", \"resources_used\": {\"nodes\": 1, \"mpi_ranks\": 4, \"gpus_detected\": true, \"threads_per_rank\": 8}, \"calculation_type\": \"static\"}" parent_id=25114 step=4 variance=0.9600000381469727 loss=0.9600000381469727 pbc="T T T"
Ti       0.00000000       0.00000000       0.00000000       0.01178926       0.00000000       0.00000000
Ti       3.47137000       0.00000000       0.00000000      -0.01178926       0.00000000       0.00000000
2
Lattice="32.544048786 0.0 0.0 0.0 19.526429272 0.0 0.0 0.0 18.441627645" Properties=species:S:1:pos:R:3:forces:R:3 generation=8 config_type=dimer_aa source_path=/home/myless/Calc_VASP/MRS/job_gen_7-2025-04-10/Ti/Ti2_dimer_idx_14 formula_string=Ti2 composition_str=Ti2 structure_index=14 date_added_to_db=2025-04-14T00:33:09.162762 structure_id=25114 energy=-4.215950298309326 stress="0.00036485989897175764 0.0 0.0 0.0 -1.9910414111567595e-05 0.0 0.0 0.0 -1.1384512645611062e-05" calculation_info="_JSON {\"calculation_id\": 25109, \"calculator\": \"vasp\", \"calculation_source_path\": \"/home/myless/Calc_VASP/MRS/job_gen_7-2025-04-10/Ti/Ti2_dimer_idx_14\", \"nbands\": 16, \"parser\": \"ase_outcar\", \"potcar\": \"PAW_PBE Ti_pv 07Sep2000\", \"kpoints\": [1, 2, 3], \"date_run\": \"2025.03.17  18:33:26\", \"vasp_version\": \"vasp.6.4.2 20Jul23\", \"resources_used\": {\"nodes\": 1, \"mpi_ranks\": 4, \"gpus_detected\": true, \"threads_per_rank\": 8}, \"calculation_type\": \"static\"}" parent_id=25114 step=5 variance=0.9600000381469727 loss=0.9600000381469727 pbc="T T T"
Ti       0.00000000       0.00000000       0.00000000       0.01178926       0.00000000       0.00000000
Ti       3.47137000       0.00000000       0.00000000      -0.01178926       0.00000000       0.00000000
2
Lattice="32.544048786 0.0 0.0 0.0 19.526429272 0.0 0.0 0.0 18.441627645" Properties=species:S:1:pos:R:3:forces:R:3 generation=8 config_type=dimer_aa source_path=/home/myless/Calc_VASP/MRS/job_gen_7-2025-04-10/Ti/Ti2_dimer_idx_14 formula_string=Ti2 composition_str=Ti2 structure_index=14 date_added_to_db=2025-04-14T00:33:09.162762 structure_id=25114 energy=-4.215950298309326 stress="0.00036485989897175764 0.0 0.0 0.0 -1.9910414111567595e-05 0.0 0.0 0.0 -1.1384512645611062e-05" calculation_info="_JSON {\"calculation_id\": 25109, \"calculator\": \"vasp\", \"calculation_source_path\": \"/home/myless/Calc_VASP/MRS/job_gen_7-2025-04-10/Ti/Ti2_dimer_idx_14\", \"nbands\": 16, \"parser\": \"ase_outcar\", \"potcar\": \"PAW_PBE Ti_pv 07Sep2000\", \"kpoints\": [1, 2, 3], \"date_run\": \"2025.03.17  18:33:26\", \"vasp_version\": \"vasp.6.4.2 20Jul23\", \"resources_used\": {\"nodes\": 1, \"mpi_ranks\": 4, \"gpus_detected\": true, \"threads_per_rank\": 8}, \"calculation_type\": \"static\"}" parent_id=25114 step=6 variance=0.9600000381469727 loss=0.9600000381469727 pbc="T T T"
Ti       0.00000000       0.00000000       0.00000000       0.01178926       0.00000000       0.00000000
Ti       3.47137000       0.00000000       0.00000000      -0.01178926       0.00000000       0.00000000
2
Lattice="32.544048786 0.0 0.0 0.0 19.526429272 0.0 0.0 0.0 18.441627645" Properties=species:S:1:pos:R:3:forces:R:3 generation=8 config_type=dimer_aa source_path=/home/myless/Calc_VASP/MRS/job_gen_7-2025-04-10/Ti/Ti2_dimer_idx_14 formula_string=Ti2 composition_str=Ti2 structure_index=14 date_added_to_db=2025-04-14T00:33:09.162762 structure_id=25114 energy=-4.215950298309326 stress="0.00036485989897175764 0.0 0.0 0.0 -1.9910414111567595e-05 0.0 0.0 0.0 -1.1384512645611062e-05" calculation_info="_JSON {\"calculation_id\": 25109, \"calculator\": \"vasp\", \"calculation_source_path\": \"/home/myless/Calc_VASP/MRS/job_gen_7-2025-04-10/Ti/Ti2_dimer_idx_14\", \"nbands\": 16, \"parser\": \"ase_outcar\", \"potcar\": \"PAW_PBE Ti_pv 07Sep2000\", \"kpoints\": [1, 2, 3], \"date_run\": \"2025.03.17  18:33:26\", \"vasp_version\": \"vasp.6.4.2 20Jul23\", \"resources_used\": {\"nodes\": 1, \"mpi_ranks\": 4, \"gpus_detected\": true, \"threads_per_rank\": 8}, \"calculation_type\": \"static\"}" parent_id=25114 step=7 variance=0.9600000381469727 loss=0.9600000381469727 pbc="T T T"
Ti       0.00000000       0.00000000       0.00000000       0.01178926       0.00000000       0.00000000
Ti       3.47137000       0.00000000       0.00000000      -0.01178926       0.00000000       0.00000000
2
Lattice="32.544048786 0.0 0.0 0.0 19.526429272 0.0 0.0 0.0 18.441627645" Properties=species:S:1:pos:R:3:forces:R:3 generation=8 config_type=dimer_aa source_path=/home/myless/Calc_VASP/MRS/job_gen_7-2025-04-10/Ti/Ti2_dimer_idx_14 formula_string=Ti2 composition_str=Ti2 structure_index=14 date_added_to_db=2025-04-14T00:33:09.162762 structure_id=25114 energy=-4.215950298309326 stress="0.00036485989897175764 0.0 0.0 0.0 -1.9910414111567595e-05 0.0 0.0 0.0 -1.1384512645611062e-05" calculation_info="_JSON {\"calculation_id\": 25109, \"calculator\": \"vasp\", \"calculation_source_path\": \"/home/myless/Calc_VASP/MRS/job_gen_7-2025-04-10/Ti/Ti2_dimer_idx_14\", \"nbands\": 16, \"parser\": \"ase_outcar\", \"potcar\": \"PAW_PBE Ti_pv 07Sep2000\", \"kpoints\": [1, 2, 3], \"date_run\": \"2025.03.17  18:33:26\", \"vasp_version\": \"vasp.6.4.2 20Jul23\", \"resources_used\": {\"nodes\": 1, \"mpi_ranks\": 4, \"gpus_detected\": true, \"threads_per_rank\": 8}, \"calculation_type\": \"static\"}" parent_id=25114 step=8 variance=0.9600000381469727 loss=0.9600000381469727 pbc="T T T"
Ti       0.00000000       0.00000000       0.00000000       0.01178926       0.00000000       0.00000000
Ti       3.47137000       0.00000000       0.00000000      -0.01178926       0.00000000       0.00000000
2
Lattice="32.544048786 0.0 0.0 0.0 19.526429272 0.0 0.0 0.0 18.441627645" Properties=species:S:1:pos:R:3:forces:R:3 generation=8 config_type=dimer_aa source_path=/home/myless/Calc_VASP/MRS/job_gen_7-2025-04-10/Ti/Ti2_dimer_idx_14 formula_string=Ti2 composition_str=Ti2 structure_index=14 date_added_to_db=2025-04-14T00:33:09.162762 structure_id=25114 energy=-4.215950298309326 stress="0.00036485989897175764 0.0 0.0 0.0 -1.9910414111567595e-05 0.0 0.0 0.0 -1.1384512645611062e-05" calculation_info="_JSON {\"calculation_id\": 25109, \"calculator\": \"vasp\", \"calculation_source_path\": \"/home/myless/Calc_VASP/MRS/job_gen_7-2025-04-10/Ti/Ti2_dimer_idx_14\", \"nbands\": 16, \"parser\": \"ase_outcar\", \"potcar\": \"PAW_PBE Ti_pv 07Sep2000\", \"kpoints\": [1, 2, 3], \"date_run\": \"2025.03.17  18:33:26\", \"vasp_version\": \"vasp.6.4.2 20Jul23\", \"resources_used\": {\"nodes\": 1, \"mpi_ranks\": 4, \"gpus_detected\": true, \"threads_per_rank\": 8}, \"calculation_type\": \"static\"}" parent_id=25114 step=9 variance=0.9600000381469727 loss=0.9600000381469727 pbc="T T T"
Ti       0.00000000       0.00000000       0.00000000       0.01178926       0.00000000       0.00000000
Ti       3.47137000       0.00000000       0.00000000      -0.01178926       0.00000000       0.00000000
2
Lattice="32.544048786 0.0 0.0 0.0 19.526429272 0.0 0.0 0.0 18.441627645" Properties=species:S:1:pos:R:3:forces:R:3 generation=8 config_type=dimer_aa source_path=/home/myless/Calc_VASP/MRS/job_gen_7-2025-04-10/Ti/Ti2_dimer_idx_14 formula_string=Ti2 composition_str=Ti2 structure_index=14 date_added_to_db=2025-04-14T00:33:09.162762 structure_id=25114 energy=-4.215950298309326 stress="0.00036485989897175764 0.0 0.0 0.0 -1.9910414111567595e-05 0.0 0.0 0.0 -1.1384512645611062e-05" calculation_info="_JSON {\"calculation_id\": 25109, \"calculator\": \"vasp\", \"calculation_source_path\": \"/home/myless/Calc_VASP/MRS/job_gen_7-2025-04-10/Ti/Ti2_dimer_idx_14\", \"nbands\": 16, \"parser\": \"ase_outcar\", \"potcar\": \"PAW_PBE Ti_pv 07Sep2000\", \"kpoints\": [1, 2, 3], \"date_run\": \"2025.03.17  18:33:26\", \"vasp_version\": \"vasp.6.4.2 20Jul23\", \"resources_used\": {\"nodes\": 1, \"mpi_ranks\": 4, \"gpus_detected\": true, \"threads_per_rank\": 8}, \"calculation_type\": \"static\"}" parent_id=25114 step=10 variance=0.9600000381469727 loss=0.9600000381469727 pbc="T T T"
Ti       0.00000000       0.00000000       0.00000000       0.01178926       0.00000000       0.00000000
Ti       3.47137000       0.00000000       0.00000000      -0.01178926       0.00000000       0.00000000
2
Lattice="32.544048786 0.0 0.0 0.0 19.526429272 0.0 0.0 0.0 18.441627645" Properties=species:S:1:pos:R:3:forces:R:3 generation=8 config_type=dimer_aa source_path=/home/myless/Calc_VASP/MRS/job_gen_7-2025-04-10/Ti/Ti2_dimer_idx_14 formula_string=Ti2 composition_str=Ti2 structure_index=14 date_added_to_db=2025-04-14T00:33:09.162762 structure_id=25114 energy=-4.215950298309326 stress="0.00036485989897175764 0.0 0.0 0.0 -1.9910414111567595e-05 0.0 0.0 0.0 -1.1384512645611062e-05" calculation_info="_JSON {\"calculation_id\": 25109, \"calculator\": \"vasp\", \"calculation_source_path\": \"/home/myless/Calc_VASP/MRS/job_gen_7-2025-04-10/Ti/Ti2_dimer_idx_14\", \"nbands\": 16, \"parser\": \"ase_outcar\", \"potcar\": \"PAW_PBE Ti_pv 07Sep2000\", \"kpoints\": [1, 2, 3], \"date_run\": \"2025.03.17  18:33:26\", \"vasp_version\": \"vasp.6.4.2 20Jul23\", \"resources_used\": {\"nodes\": 1, \"mpi_ranks\": 4, \"gpus_detected\": true, \"threads_per_rank\": 8}, \"calculation_type\": \"static\"}" parent_id=25114 step=11 variance=0.9600000381469727 loss=0.9600000381469727 pbc="T T T"
Ti       0.00000000       0.00000000       0.00000000       0.01178926       0.00000000       0.00000000
Ti       3.47137000       0.00000000       0.00000000      -0.01178926       0.00000000       0.00000000
2
Lattice="32.544048786 0.0 0.0 0.0 19.526429272 0.0 0.0 0.0 18.441627645" Properties=species:S:1:pos:R:3:forces:R:3 generation=8 config_type=dimer_aa source_path=/home/myless/Calc_VASP/MRS/job_gen_7-2025-04-10/Ti/Ti2_dimer_idx_14 formula_string=Ti2 composition_str=Ti2 structure_index=14 date_added_to_db=2025-04-14T00:33:09.162762 structure_id=25114 energy=-4.215950298309326 stress="0.00036485989897175764 0.0 0.0 0.0 -1.9910414111567595e-05 0.0 0.0 0.0 -1.1384512645611062e-05" calculation_info="_JSON {\"calculation_id\": 25109, \"calculator\": \"vasp\", \"calculation_source_path\": \"/home/myless/Calc_VASP/MRS/job_gen_7-2025-04-10/Ti/Ti2_dimer_idx_14\", \"nbands\": 16, \"parser\": \"ase_outcar\", \"potcar\": \"PAW_PBE Ti_pv 07Sep2000\", \"kpoints\": [1, 2, 3], \"date_run\": \"2025.03.17  18:33:26\", \"vasp_version\": \"vasp.6.4.2 20Jul23\", \"resources_used\": {\"nodes\": 1, \"mpi_ranks\": 4, \"gpus_detected\": true, \"threads_per_rank\": 8}, \"calculation_type\": \"static\"}" parent_id=25114 step=12 variance=0.9600000381469727 loss=0.9600000381469727 pbc="T T T"
Ti       0.00000000       0.00000000       0.00000000       0.01178926       0.00000000       0.00000000
Ti       3.47137000       0.00000000       0.00000000      -0.01178926       0.00000000       0.00000000
2
Lattice="32.544048786 0.0 0.0 0.0 19.526429272 0.0 0.0 0.0 18.441627645" Properties=species:S:1:pos:R:3:forces:R:3 generation=8 config_type=dimer_aa source_path=/home/myless/Calc_VASP/MRS/job_gen_7-2025-04-10/Ti/Ti2_dimer_idx_14 formula_string=Ti2 composition_str=Ti2 structure_index=14 date_added_to_db=2025-04-14T00:33:09.162762 structure_id=25114 energy=-4.215950298309326 stress="0.00036485989897175764 0.0 0.0 0.0 -1.9910414111567595e-05 0.0 0.0 0.0 -1.1384512645611062e-05" calculation_info="_JSON {\"calculation_id\": 25109, \"calculator\": \"vasp\", \"calculation_source_path\": \"/home/myless/Calc_VASP/MRS/job_gen_7-2025-04-10/Ti/Ti2_dimer_idx_14\", \"nbands\": 16, \"parser\": \"ase_outcar\", \"potcar\": \"PAW_PBE Ti_pv 07Sep2000\", \"kpoints\": [1, 2, 3], \"date_run\": \"2025.03.17  18:33:26\", \"vasp_version\": \"vasp.6.4.2 20Jul23\", \"resources_used\": {\"nodes\": 1, \"mpi_ranks\": 4, \"gpus_detected\": true, \"threads_per_rank\": 8}, \"calculation_type\": \"static\"}" parent_id=25114 step=13 variance=0.9600000381469727 loss=0.9600000381469727 pbc="T T T"
Ti       0.00000000       0.00000000       0.00000000       0.01178926       0.00000000       0.00000000
Ti       3.47137000       0.00000000       0.00000000      -0.01178926       0.00000000       0.00000000
2
Lattice="32.544048786 0.0 0.0 0.0 19.526429272 0.0 0.0 0.0 18.441627645" Properties=species:S:1:pos:R:3:forces:R:3 generation=8 config_type=dimer_aa source_path=/home/myless/Calc_VASP/MRS/job_gen_7-2025-04-10/Ti/Ti2_dimer_idx_14 formula_string=Ti2 composition_str=Ti2 structure_index=14 date_added_to_db=2025-04-14T00:33:09.162762 structure_id=25114 energy=-4.215950298309326 stress="0.00036485989897175764 0.0 0.0 0.0 -1.9910414111567595e-05 0.0 0.0 0.0 -1.1384512645611062e-05" calculation_info="_JSON {\"calculation_id\": 25109, \"calculator\": \"vasp\", \"calculation_source_path\": \"/home/myless/Calc_VASP/MRS/job_gen_7-2025-04-10/Ti/Ti2_dimer_idx_14\", \"nbands\": 16, \"parser\": \"ase_outcar\", \"potcar\": \"PAW_PBE Ti_pv 07Sep2000\", \"kpoints\": [1, 2, 3], \"date_run\": \"2025.03.17  18:33:26\", \"vasp_version\": \"vasp.6.4.2 20Jul23\", \"resources_used\": {\"nodes\": 1, \"mpi_ranks\": 4, \"gpus_detected\": true, \"threads_per_rank\": 8}, \"calculation_type\": \"static\"}" parent_id=25114 step=14 variance=0.9600000381469727 loss=0.9600000381469727 pbc="T T T"
Ti       0.00000000       0.00000000       0.00000000       0.01178926       0.00000000       0.00000000
Ti       3.47137000       0.00000000       0.00000000      -0.01178926       0.00000000       0.00000000
2
Lattice="32.544048786 0.0 0.0 0.0 19.526429272 0.0 0.0 0.0 18.441627645" Properties=species:S:1:pos:R:3:forces:R:3 generation=8 config_type=dimer_aa source_path=/home/myless/Calc_VASP/MRS/job_gen_7-2025-04-10/Ti/Ti2_dimer_idx_14 formula_string=Ti2 composition_str=Ti2 structure_index=14 date_added_to_db=2025-04-14T00:33:09.162762 structure_id=25114 energy=-4.215950298309326 stress="0.00036485989897175764 0.0 0.0 0.0 -1.9910414111567595e-05 0.0 0.0 0.0 -1.1384512645611062e-05" calculation_info="_JSON {\"calculation_id\": 25109, \"calculator\": \"vasp\", \"calculation_source_path\": \"/home/myless/Calc_VASP/MRS/job_gen_7-2025-04-10/Ti/Ti2_dimer_idx_14\", \"nbands\": 16, \"parser\": \"ase_outcar\", \"potcar\": \"PAW_PBE Ti_pv 07Sep2000\", \"kpoints\": [1, 2, 3], \"date_run\": \"2025.03.17  18:33:26\", \"vasp_version\": \"vasp.6.4.2 20Jul23\", \"resources_used\": {\"nodes\": 1, \"mpi_ranks\": 4, \"gpus_detected\": true, \"threads_per_rank\": 8}, \"calculation_type\": \"static\"}" parent_id=25114 step=15 variance=0.9600000381469727 loss=0.9600000381469727 pbc="T T T"
Ti       0.00000000       0.00000000       0.00000000       0.01178926       0.00000000       0.00000000
Ti       3.47137000       0.00000000       0.00000000      -0.01178926       0.00000000       0.00000000
2
Lattice="32.544048786 0.0 0.0 0.0 19.526429272 0.0 0.0 0.0 18.441627645" Properties=species:S:1:pos:R:3:forces:R:3 generation=8 config_type=dimer_aa source_path=/home/myless/Calc_VASP/MRS/job_gen_7-2025-04-10/Ti/Ti2_dimer_idx_14 formula_string=Ti2 composition_str=Ti2 structure_index=14 date_added_to_db=2025-04-14T00:33:09.162762 structure_id=25114 energy=-4.215950298309326 stress="0.00036485989897175764 0.0 0.0 0.0 -1.9910414111567595e-05 0.0 0.0 0.0 -1.1384512645611062e-05" calculation_info="_JSON {\"calculation_id\": 25109, \"calculator\": \"vasp\", \"calculation_source_path\": \"/home/myless/Calc_VASP/MRS/job_gen_7-2025-04-10/Ti/Ti2_dimer_idx_14\", \"nbands\": 16, \"parser\": \"ase_outcar\", \"potcar\": \"PAW_PBE Ti_pv 07Sep2000\", \"kpoints\": [1, 2, 3], \"date_run\": \"2025.03.17  18:33:26\", \"vasp_version\": \"vasp.6.4.2 20Jul23\", \"resources_used\": {\"nodes\": 1, \"mpi_ranks\": 4, \"gpus_detected\": true, \"threads_per_rank\": 8}, \"calculation_type\": \"static\"}" parent_id=25114 step=16 variance=0.9600000381469727 loss=0.9600000381469727 pbc="T T T"
Ti       0.00000000       0.00000000       0.00000000       0.01178926       0.00000000       0.00000000
Ti       3.47137000       0.00000000       0.00000000      -0.01178926       0.00000000       0.00000000
2
Lattice="32.544048786 0.0 0.0 0.0 19.526429272 0.0 0.0 0.0 18.441627645" Properties=species:S:1:pos:R:3:forces:R:3 generation=8 config_type=dimer_aa source_path=/home/myless/Calc_VASP/MRS/job_gen_7-2025-04-10/Ti/Ti2_dimer_idx_14 formula_string=Ti2 composition_str=Ti2 structure_index=14 date_added_to_db=2025-04-14T00:33:09.162762 structure_id=25114 energy=-4.215950298309326 stress="0.00036485989897175764 0.0 0.0 0.0 -1.9910414111567595e-05 0.0 0.0 0.0 -1.1384512645611062e-05" calculation_info="_JSON {\"calculation_id\": 25109, \"calculator\": \"vasp\", \"calculation_source_path\": \"/home/myless/Calc_VASP/MRS/job_gen_7-2025-04-10/Ti/Ti2_dimer_idx_14\", \"nbands\": 16, \"parser\": \"ase_outcar\", \"potcar\": \"PAW_PBE Ti_pv 07Sep2000\", \"kpoints\": [1, 2, 3], \"date_run\": \"2025.03.17  18:33:26\", \"vasp_version\": \"vasp.6.4.2 20Jul23\", \"resources_used\": {\"nodes\": 1, \"mpi_ranks\": 4, \"gpus_detected\": true, \"threads_per_rank\": 8}, \"calculation_type\": \"static\"}" parent_id=25114 step=17 variance=0.9600000381469727 loss=0.9600000381469727 pbc="T T T"
Ti       0.00000000       0.00000000       0.00000000       0.01178926       0.00000000       0.00000000
Ti       3.47137000       0.00000000       0.00000000      -0.01178926       0.00000000       0.00000000
2
Lattice="32.544048786 0.0 0.0 0.0 19.526429272 0.0 0.0 0.0 18.441627645" Properties=species:S:1:pos:R:3:forces:R:3 generation=8 config_type=dimer_aa source_path=/home/myless/Calc_VASP/MRS/job_gen_7-2025-04-10/Ti/Ti2_dimer_idx_14 formula_string=Ti2 composition_str=Ti2 structure_index=14 date_added_to_db=2025-04-14T00:33:09.162762 structure_id=25114 energy=-4.215950298309326 stress="0.00036485989897175764 0.0 0.0 0.0 -1.9910414111567595e-05 0.0 0.0 0.0 -1.1384512645611062e-05" calculation_info="_JSON {\"calculation_id\": 25109, \"calculator\": \"vasp\", \"calculation_source_path\": \"/home/myless/Calc_VASP/MRS/job_gen_7-2025-04-10/Ti/Ti2_dimer_idx_14\", \"nbands\": 16, \"parser\": \"ase_outcar\", \"potcar\": \"PAW_PBE Ti_pv 07Sep2000\", \"kpoints\": [1, 2, 3], \"date_run\": \"2025.03.17  18:33:26\", \"vasp_version\": \"vasp.6.4.2 20Jul23\", \"resources_used\": {\"nodes\": 1, \"mpi_ranks\": 4, \"gpus_detected\": true, \"threads_per_rank\": 8}, \"calculation_type\": \"static\"}" parent_id=25114 step=18 variance=0.9600000381469727 loss=0.9600000381469727 pbc="T T T"
Ti       0.00000000       0.00000000       0.00000000       0.01178926       0.00000000       0.00000000
Ti       3.47137000       0.00000000       0.00000000      -0.01178926       0.00000000       0.00000000
2
Lattice="32.544048786 0.0 0.0 0.0 19.526429272 0.0 0.0 0.0 18.441627645" Properties=species:S:1:pos:R:3:forces:R:3 generation=8 config_type=dimer_aa source_path=/home/myless/Calc_VASP/MRS/job_gen_7-2025-04-10/Ti/Ti2_dimer_idx_14 formula_string=Ti2 composition_str=Ti2 structure_index=14 date_added_to_db=2025-04-14T00:33:09.162762 structure_id=25114 energy=-4.215950298309326 stress="0.00036485989897175764 0.0 0.0 0.0 -1.9910414111567595e-05 0.0 0.0 0.0 -1.1384512645611062e-05" calculation_info="_JSON {\"calculation_id\": 25109, \"calculator\": \"vasp\", \"calculation_source_path\": \"/home/myless/Calc_VASP/MRS/job_gen_7-2025-04-10/Ti/Ti2_dimer_idx_14\", \"nbands\": 16, \"parser\": \"ase_outcar\", \"potcar\": \"PAW_PBE Ti_pv 07Sep2000\", \"kpoints\": [1, 2, 3], \"date_run\": \"2025.03.17  18:33:26\", \"vasp_version\": \"vasp.6.4.2 20Jul23\", \"resources_used\": {\"nodes\": 1, \"mpi_ranks\": 4, \"gpus_detected\": true, \"threads_per_rank\": 8}, \"calculation_type\": \"static\"}" parent_id=25114 step=19 variance=0.9600000381469727 loss=0.9600000381469727 pbc="T T T"
Ti       0.00000000       0.00000000       0.00000000       0.01178926       0.00000000       0.00000000
Ti       3.47137000       0.00000000       0.00000000      -0.01178926       0.00000000       0.00000000
2
Lattice="32.544048786 0.0 0.0 0.0 19.526429272 0.0 0.0 0.0 18.441627645" Properties=species:S:1:pos:R:3:forces:R:3 generation=8 config_type=dimer_aa source_path=/home/myless/Calc_VASP/MRS/job_gen_7-2025-04-10/Ti/Ti2_dimer_idx_14 formula_string=Ti2 composition_str=Ti2 structure_index=14 date_added_to_db=2025-04-14T00:33:09.162762 structure_id=25114 energy=-4.215950298309326 stress="0.00036485989897175764 0.0 0.0 0.0 -1.9910414111567595e-05 0.0 0.0 0.0 -1.1384512645611062e-05" calculation_info="_JSON {\"calculation_id\": 25109, \"calculator\": \"vasp\", \"calculation_source_path\": \"/home/myless/Calc_VASP/MRS/job_gen_7-2025-04-10/Ti/Ti2_dimer_idx_14\", \"nbands\": 16, \"parser\": \"ase_outcar\", \"potcar\": \"PAW_PBE Ti_pv 07Sep2000\", \"kpoints\": [1, 2, 3], \"date_run\": \"2025.03.17  18:33:26\", \"vasp_version\": \"vasp.6.4.2 20Jul23\", \"resources_used\": {\"nodes\": 1, \"mpi_ranks\": 4, \"gpus_detected\": true, \"threads_per_rank\": 8}, \"calculation_type\": \"static\"}" parent_id=25114 step=20 variance=0.9600000381469727 loss=0.9600000381469727 pbc="T T T"
Ti       0.00000000       0.00000000       0.00000000       0.01178926       0.00000000       0.00000000
Ti       3.47137000       0.00000000       0.00000000      -0.01178926       0.00000000       0.00000000
2
Lattice="32.544048786 0.0 0.0 0.0 19.526429272 0.0 0.0 0.0 18.441627645" Properties=species:S:1:pos:R:3:forces:R:3 generation=8 config_type=dimer_aa source_path=/home/myless/Calc_VASP/MRS/job_gen_7-2025-04-10/Ti/Ti2_dimer_idx_14 formula_string=Ti2 composition_str=Ti2 structure_index=14 date_added_to_db=2025-04-14T00:33:09.162762 structure_id=25114 energy=-4.218243885040283 stress="0.00036485989897175764 0.0 0.0 0.0 -1.9910414111567595e-05 0.0 0.0 0.0 -1.1384512645611062e-05" calculation_info="_JSON {\"calculation_id\": 25109, \"calculator\": \"vasp\", \"calculation_source_path\": \"/home/myless/Calc_VASP/MRS/job_gen_7-2025-04-10/Ti/Ti2_dimer_idx_14\", \"nbands\": 16, \"parser\": \"ase_outcar\", \"potcar\": \"PAW_PBE Ti_pv 07Sep2000\", \"kpoints\": [1, 2, 3], \"date_run\": \"2025.03.17  18:33:26\", \"vasp_version\": \"vasp.6.4.2 20Jul23\", \"resources_used\": {\"nodes\": 1, \"mpi_ranks\": 4, \"gpus_detected\": true, \"threads_per_rank\": 8}, \"calculation_type\": \"static\"}" parent_id=25114 step=21 variance=0.64000004529953 loss=0.64000004529953 pbc="T T T"
Ti      -0.01801483      -0.04369538      -0.01213090      -0.13024484      -0.00394373      -0.00081267
Ti       3.48899590       0.06249451       0.00975122       0.13024484       0.00394373       0.00081267
2