2
Lattice="2.950727775 -0.23302547 0.610932352 -0.274823862 2.591931336 -0.005336074 0.452794487 0.322589843 2.717318711" Properties=species:S:1:pos:R:3:forces:R:3 generation=7 config_type=bcc_distorted source_path=/home/myless/Calc_VASP/MRS/job_gen_7-2025-04-10/Ti/Ti2_bcc_distorted_idx_2530 formula_string=Ti2 composition_str=Ti2 structure_index=2530 date_added_to_db=2025-04-14T00:32:28.613155 structure_id=25016 energy=-9.439074 stress="-1.0248598367264354 -0.2896391783374599 0.4945103365722512 -0.2896391783374599 -1.0415623710491733 0.2645102384457413 0.4945103365722512 0.2645102384457413 -0.9838736500928975" calculation_info="_JSON {\"calculation_id\": 25011, \"calculator\": \"vasp\", \"calculation_source_path\": \"/home/myless/Calc_VASP/MRS/job_gen_7-2025-04-10/Ti/Ti2_bcc_distorted_idx_2530\", \"nbands\": 16, \"parser\": \"ase_outcar\", \"potcar\": \"PAW_PBE Ti_pv 07Sep2000\", \"kpoints\": [16, 18, 17], \"date_run\": \"2025.03.17  16:06:27\", \"vasp_version\": \"vasp.6.4.2 20Jul23\", \"resources_used\": {\"nodes\": 1, \"mpi_ranks\": 4, \"gpus_detected\": true, \"threads_per_rank\": 8}, \"calculation_type\": \"static\"}" pbc="T T T"
Ti       0.00000000       0.00000000       0.00000000       0.00000000       0.00000000       0.00000000
Ti       1.56435000       1.34075000       1.66146000       0.00000000       0.00000000       0.00000000
2
Lattice="2.950727775 -0.23302547 0.610932352 -0.274823862 2.591931336 -0.005336074 0.452794487 0.322589843 2.717318711" Properties=species:S:1:pos:R:3:forces:R:3 generation=8 config_type=bcc_distorted_aa source_path=/home/myless/Calc_VASP/MRS/job_gen_7-2025-04-10/Ti/Ti2_bcc_distorted_idx_2530 formula_string=Ti2 composition_str=Ti2 structure_index=2530 date_added_to_db=2025-04-14T00:32:28.613155 structure_id=25016 energy=-9.595659255981445 stress="-1.0248598367264354 -0.2896391783374599 0.4945103365722512 -0.2896391783374599 -1.0415623710491733 0.2645102384457413 0.4945103365722512 0.2645102384457413 -0.9838736500928975" calculation_info="_JSON {\"calculation_id\": 25011, \"calculator\": \"vasp\", \"calculation_source_path\": \"/home/myless/Calc_VASP/MRS/job_gen_7-2025-04-10/Ti/Ti2_bcc_distorted_idx_2530\", \"nbands\": 16, \"parser\": \"ase_outcar\", \"potcar\": \"PAW_PBE Ti_pv 07Sep2000\", \"kpoints\": [16, 18, 17], \"date_run\": \"2025.03.17  16:06:27\", \"vasp_version\": \"vasp.6.4.2 20Jul23\", \"resources_used\": {\"nodes\": 1, \"mpi_ranks\": 4, \"gpus_detected\": true, \"threads_per_rank\": 8}, \"calculation_type\": \"static\"}" parent_id=25016 step=0 variance=0.47889918088912964 loss=0.47889918088912964 pbc="T T T"
Ti       0.00000000       0.00000000       0.00000000       0.00001312      -0.00000099      -0.00000506
Ti       1.56435000       1.34075000       1.66146000      -0.00001317       0.00000100       0.00000501
2
Lattice="2.950727775 -0.23302547 0.610932352 -0.274823862 2.591931336 -0.005336074 0.452794487 0.322589843 2.717318711" Properties=species:S:1:pos:R:3:forces:R:3 generation=8 config_type=bcc_distorted_aa source_path=/home/myless/Calc_VASP/MRS/job_gen_7-2025-04-10/Ti/Ti2_bcc_distorted_idx_2530 formula_string=Ti2 composition_str=Ti2 structure_index=2530 date_added_to_db=2025-04-14T00:32:28.613155 structure_id=25016 energy=-9.595659637451172 stress="-1.0248598367264354 -0.2896391783374599 0.4945103365722512 -0.2896391783374599 -1.0415623710491733 0.2645102384457413 0.4945103365722512 0.2645102384457413 -0.9838736500928975" calculation_info="_JSON {\"calculation_id\": 25011, \"calculator\": \"vasp\", \"calculation_source_path\": \"/home/myless/Calc_VASP/MRS/job_gen_7-2025-04-10/Ti/Ti2_bcc_distorted_idx_2530\", \"nbands\": 16, \"parser\": \"ase_outcar\", \"potcar\": \"PAW_PBE Ti_pv 07Sep2000\", \"kpoints\": [16, 18, 17], \"date_run\": \"2025.03.17  16:06:27\", \"vasp_version\": \"vasp.6.4.2 20Jul23\", \"resources_used\": {\"nodes\": 1, \"mpi_ranks\": 4, \"gpus_detected\": true, \"threads_per_rank\": 8}, \"calculation_type\": \"static\"}" parent_id=25016 step=1 variance=0.4892804026603699 loss=0.4892804026603699 pbc="T T T"
Ti      -0.01000000      -0.01000000      -0.01000000       0.00001308      -0.00000088      -0.00000471
Ti       1.55435000       1.33075000       1.65146000      -0.00001327       0.00000082       0.00000491
2
Lattice="2.950727775 -0.23302547 0.610932352 -0.274823862 2.591931336 -0.005336074 0.452794487 0.322589843 2.717318711" Properties=species:S:1:pos:R:3:forces:R:3 generation=8 config_type=bcc_distorted_aa source_path=/home/myless/Calc_VASP/MRS/job_gen_7-2025-04-10/Ti/Ti2_bcc_distorted_idx_2530 formula_string=Ti2 composition_str=Ti2 structure_index=2530 date_added_to_db=2025-04-14T00:32:28.613155 structure_id=25016 energy=-9.5956600189209 stress="-1.0248598367264354 -0.2896391783374599 0.4945103365722512 -0.2896391783374599 -1.0415623710491733 0.2645102384457413 0.4945103365722512 0.2645102384457413 -0.9838736500928975" calculation_info="_JSON {\"calculation_id\": 25011, \"calculator\": \"vasp\", \"calculation_source_path\": \"/home/myless/Calc_VASP/MRS/job_gen_7-2025-04-10/Ti/Ti2_bcc_distorted_idx_2530\", \"nbands\": 16, \"parser\": \"ase_outcar\", \"potcar\": \"PAW_PBE Ti_pv 07Sep2000\", \"kpoints\": [16, 18, 17], \"date_run\": \"2025.03.17  16:06:27\", \"vasp_version\": \"vasp.6.4.2 20Jul23\", \"resources_used\": {\"nodes\": 1, \"mpi_ranks\": 4, \"gpus_detected\": true, \"threads_per_rank\": 8}, \"calculation_type\": \"static\"}" parent_id=25016 step=2 variance=0.18414151668548584 loss=0.18414151668548584 pbc="T T T"
Ti      -0.02001213      -0.02000584      -0.02000962       0.00001775       0.00001171      -0.00001224
Ti       1.54433820       1.32074372       1.64144861      -0.00001767      -0.00001157       0.00001235
2
Lattice="2.950727775 -0.23302547 0.610932352 -0.274823862 2.591931336 -0.005336074 0.452794487 0.322589843 2.717318711" Properties=species:S:1:pos:R:3:forces:R:3 generation=8 config_type=bcc_distorted_aa source_path=/home/myless/Calc_VASP/MRS/job_gen_7-2025-04-10/Ti/Ti2_bcc_distorted_idx_2530 formula_string=Ti2 composition_str=Ti2 structure_index=2530 date_added_to_db=2025-04-14T00:32:28.613155 structure_id=25016 energy=-9.595652008056641 stress="-1.0248598367264354 -0.2896391783374599 0.4945103365722512 -0.2896391783374599 -1.0415623710491733 0.2645102384457413 0.4945103365722512 0.2645102384457413 -0.9838736500928975" calculation_info="_JSON {\"calculation_id\": 25011, \"calculator\": \"vasp\", \"calculation_source_path\": \"/home/myless/Calc_VASP/MRS/job_gen_7-2025-04-10/Ti/Ti2_bcc_distorted_idx_2530\", \"nbands\": 16, \"parser\": \"ase_outcar\", \"potcar\": \"PAW_PBE Ti_pv 07Sep2000\", \"kpoints\": [16, 18, 17], \"date_run\": \"2025.03.17  16:06:27\", \"vasp_version\": \"vasp.6.4.2 20Jul23\", \"resources_used\": {\"nodes\": 1, \"mpi_ranks\": 4, \"gpus_detected\": true, \"threads_per_rank\": 8}, \"calculation_type\": \"static\"}" parent_id=25016 step=3 variance=0.2220243364572525 loss=0.2220243364572525 pbc="T T T"
Ti      -0.02248146      -0.02871425      -0.02545797      -0.00863354      -0.01309052       0.01030420
Ti       1.54160821       1.31201457       1.63743685       0.00863379       0.01309060      -0.01030421
2
Lattice="2.950727775 -0.23302547 0.610932352 -0.274823862 2.591931336 -0.005336074 0.452794487 0.322589843 2.717318711" Properties=species:S:1:pos:R:3:forces:R:3 generation=8 config_type=bcc_distorted_aa source_path=/home/myless/Calc_VASP/MRS/job_gen_7-2025-04-10/Ti/Ti2_bcc_distorted_idx_2530 formula_string=Ti2 composition_str=Ti2 structure_index=2530 date_added_to_db=2025-04-14T00:32:28.613155 structure_id=25016 energy=-9.595649909973144 stress="-1.0248598367264354 -0.2896391783374599 0.4945103365722512 -0.2896391783374599 -1.0415623710491733 0.2645102384457413 0.4945103365722512 0.2645102384457413 -0.9838736500928975" calculation_info="_JSON {\"calculation_id\": 25011, \"calculator\": \"vasp\", \"calculation_source_path\": \"/home/myless/Calc_VASP/MRS/job_gen_7-2025-04-10/Ti/Ti2_bcc_distorted_idx_2530\", \"nbands\": 16, \"parser\": \"ase_outcar\", \"potcar\": \"PAW_PBE Ti_pv 07Sep2000\", \"kpoints\": [16, 18, 17], \"date_run\": \"2025.03.17  16:06:27\", \"vasp_version\": \"vasp.6.4.2 20Jul23\", \"resources_used\": {\"nodes\": 1, \"mpi_ranks\": 4, \"gpus_detected\": true, \"threads_per_rank\": 8}, \"calculation_type\": \"static\"}" parent_id=25016 step=4 variance=0.49360477924346924 loss=0.49360477924346924 pbc="T T T"
Ti      -0.02488739      -0.03611638      -0.02999803      -0.00549415      -0.01454648       0.01126315
Ti       1.53987181       1.30517552       1.63423006       0.00549408       0.01454646      -0.01126320
2
Lattice="2.950727775 -0.23302547 0.610932352 -0.274823862 2.591931336 -0.005336074 0.452794487 0.322589843 2.717318711" Properties=species:S:1:pos:R:3:forces:R:3 generation=8 config_type=bcc_distorted_aa source_path=/home/myless/Calc_VASP/MRS/job_gen_7-2025-04-10/Ti/Ti2_bcc_distorted_idx_2530 formula_string=Ti2 composition_str=Ti2 structure_index=2530 date_added_to_db=2025-04-14T00:32:28.613155 structure_id=25016 energy=-9.595648765563965 stress="-1.0248598367264354 -0.2896391783374599 0.4945103365722512 -0.2896391783374599 -1.0415623710491733 0.2645102384457413 0.4945103365722512 0.2645102384457413 -0.9838736500928975" calculation_info="_JSON {\"calculation_id\": 25011, \"calculator\": \"vasp\", \"calculation_source_path\": \"/home/myless/Calc_VASP/MRS/job_gen_7-2025-04-10/Ti/Ti2_bcc_distorted_idx_2530\", \"nbands\": 16, \"parser\": \"ase_outcar\", \"potcar\": \"PAW_PBE Ti_pv 07Sep2000\", \"kpoints\": [16, 18, 17], \"date_run\": \"2025.03.17  16:06:27\", \"vasp_version\": \"vasp.6.4.2 20Jul23\", \"resources_used\": {\"nodes\": 1, \"mpi_ranks\": 4, \"gpus_detected\": true, \"threads_per_rank\": 8}, \"calculation_type\": \"static\"}" parent_id=25016 step=5 variance=0.7591490149497986 loss=0.7591490149497986 pbc="T T T"
Ti      -0.02738332      -0.04259015      -0.03368345       0.00896049      -0.00296823       0.00230095
Ti       1.53890638       1.29962665       1.63136699      -0.00896054       0.00296817      -0.00230100
2
Lattice="2.950727775 -0.23302547 0.610932352 -0.274823862 2.591931336 -0.005336074 0.452794487 0.322589843 2.717318711" Properties=species:S:1:pos:R:3:forces:R:3 generation=8 config_type=bcc_distorted_aa source_path=/home/myless/Calc_VASP/MRS/job_gen_7-2025-04-10/Ti/Ti2_bcc_distorted_idx_2530 formula_string=Ti2 composition_str=Ti2 structure_index=2530 date_added_to_db=2025-04-14T00:32:28.613155 structure_id=25016 energy=-9.595635032653808 stress="-1.0248598367264354 -0.2896391783374599 0.4945103365722512 -0.2896391783374599 -1.0415623710491733 0.2645102384457413 0.4945103365722512 0.2645102384457413 -0.9838736500928975" calculation_info="_JSON {\"calculation_id\": 25011, \"calculator\": \"vasp\", \"calculation_source_path\": \"/home/myless/Calc_VASP/MRS/job_gen_7-2025-04-10/Ti/Ti2_bcc_distorted_idx_2530\", \"nbands\": 16, \"parser\": \"ase_outcar\", \"potcar\": \"PAW_PBE Ti_pv 07Sep2000\", \"kpoints\": [16, 18, 17], \"date_run\": \"2025.03.17  16:06:27\", \"vasp_version\": \"vasp.6.4.2 20Jul23\", \"resources_used\": {\"nodes\": 1, \"mpi_ranks\": 4, \"gpus_detected\": true, \"threads_per_rank\": 8}, \"calculation_type\": \"static\"}" parent_id=25016 step=6 variance=0.7658400535583496 loss=0.7658400535583496 pbc="T T T"
Ti      -0.02935311      -0.04796547      -0.03706525       0.01388938      -0.00068998       0.00177749
Ti       1.53799424       1.29463467       1.62915680      -0.01388932       0.00068999      -0.00177758
2
Lattice="2.950727775 -0.23302547 0.610932352 -0.274823862 2.591931336 -0.005336074 0.452794487 0.322589843 2.717318711" Properties=species:S:1:pos:R:3:forces:R:3 generation=8 config_type=bcc_distorted_aa source_path=/home/myless/Calc_VASP/MRS/job_gen_7-2025-04-10/Ti/Ti2_bcc_distorted_idx_2530 formula_string=Ti2 composition_str=Ti2 structure_index=2530 date_added_to_db=2025-04-14T00:32:28.613155 structure_id=25016 energy=-9.595620727539062 stress="-1.0248598367264354 -0.2896391783374599 0.4945103365722512 -0.2896391783374599 -1.0415623710491733 0.2645102384457413 0.4945103365722512 0.2645102384457413 -0.9838736500928975" calculation_info="_JSON {\"calculation_id\": 25011, \"calculator\": \"vasp\", \"calculation_source_path\": \"/home/myless/Calc_VASP/MRS/job_gen_7-2025-04-10/Ti/Ti2_bcc_distorted_idx_2530\", \"nbands\": 16, \"parser\": \"ase_outcar\", \"potcar\": \"PAW_PBE Ti_pv 07Sep2000\", \"kpoints\": [16, 18, 17], \"date_run\": \"2025.03.17  16:06:27\", \"vasp_version\": \"vasp.6.4.2 20Jul23\", \"resources_used\": {\"nodes\": 1, \"mpi_ranks\": 4, \"gpus_detected\": true, \"threads_per_rank\": 8}, \"calculation_type\": \"static\"}" parent_id=25016 step=7 variance=0.8300029039382935 loss=0.8300029039382935 pbc="T T T"
Ti      -0.03102148      -0.05249657      -0.04018738       0.01288340      -0.00391025       0.00645477
Ti       1.53710975       1.29011162       1.62738526      -0.01288351       0.00391028      -0.00645484
2
Lattice="2.950727775 -0.23302547 0.610932352 -0.274823862 2.591931336 -0.005336074 0.452794487 0.322589843 2.717318711" Properties=species:S:1:pos:R:3:forces:R:3 generation=8 config_type=bcc_distorted_aa source_path=/home/myless/Calc_VASP/MRS/job_gen_7-2025-04-10/Ti/Ti2_bcc_distorted_idx_2530 formula_string=Ti2 composition_str=Ti2 structure_index=2530 date_added_to_db=2025-04-14T00:32:28.613155 structure_id=25016 energy=-9.595599746704101 stress="-1.0248598367264354 -0.2896391783374599 0.4945103365722512 -0.2896391783374599 -1.0415623710491733 0.2645102384457413 0.4945103365722512 0.2645102384457413 -0.9838736500928975" calculation_info="_JSON {\"calculation_id\": 25011, \"calculator\": \"vasp\", \"calculation_source_path\": \"/home/myless/Calc_VASP/MRS/job_gen_7-2025-04-10/Ti/Ti2_bcc_distorted_idx_2530\", \"nbands\": 16, \"parser\": \"ase_outcar\", \"potcar\": \"PAW_PBE Ti_pv 07Sep2000\", \"kpoints\": [16, 18, 17], \"date_run\": \"2025.03.17  16:06:27\", \"vasp_version\": \"vasp.6.4.2 20Jul23\", \"resources_used\": {\"nodes\": 1, \"mpi_ranks\": 4, \"gpus_detected\": true, \"threads_per_rank\": 8}, \"calculation_type\": \"static\"}" parent_id=25016 step=8 variance=0.8479586243629456 loss=0.8479586243629456 pbc="T T T"
Ti      -0.03257374      -0.05643369      -0.04294876       0.01183256      -0.00605355       0.01087274
Ti       1.53640065       1.28604419       1.62581107      -0.01183263       0.00605359      -0.01087272
2
Lattice="2.950727775 -0.23302547 0.610932352 -0.274823862 2.591931336 -0.005336074 0.452794487 0.322589843 2.717318711" Properties=species:S:1:pos:R:3:forces:R:3 generation=8 config_type=bcc_distorted_aa source_path=/home/myless/Calc_VASP/MRS/job_gen_7-2025-04-10/Ti/Ti2_bcc_distorted_idx_2530 formula_string=Ti2 composition_str=Ti2 structure_index=2530 date_added_to_db=2025-04-14T00:32:28.613155 structure_id=25016 energy=-9.595574951171875 stress="-1.0248598367264354 -0.2896391783374599 0.4945103365722512 -0.2896391783374599 -1.0415623710491733 0.2645102384457413 0.4945103365722512 0.2645102384457413 -0.9838736500928975" calculation_info="_JSON {\"calculation_id\": 25011, \"calculator\": \"vasp\", \"calculation_source_path\": \"/home/myless/Calc_VASP/MRS/job_gen_7-2025-04-10/Ti/Ti2_bcc_distorted_idx_2530\", \"nbands\": 16, \"parser\": \"ase_outcar\", \"potcar\": \"PAW_PBE Ti_pv 07Sep2000\", \"kpoints\": [16, 18, 17], \"date_run\": \"2025.03.17  16:06:27\", \"vasp_version\": \"vasp.6.4.2 20Jul23\", \"resources_used\": {\"nodes\": 1, \"mpi_ranks\": 4, \"gpus_detected\": true, \"threads_per_rank\": 8}, \"calculation_type\": \"static\"}" parent_id=25016 step=9 variance=0.9065839052200317 loss=0.9065839052200317 pbc="T T T"
Ti      -0.03414240      -0.05996347      -0.04528433       0.01511083      -0.00246559       0.01105552
Ti       1.53597232       1.28244886       1.62428331      -0.01511079       0.00246540      -0.01105575
2
Lattice="2.950727775 -0.23302547 0.610932352 -0.274823862 2.591931336 -0.005336074 0.452794487 0.322589843 2.717318711" Properties=species:S:1:pos:R:3:forces:R:3 generation=8 config_type=bcc_distorted_aa source_path=/home/myless/Calc_VASP/MRS/job_gen_7-2025-04-10/Ti/Ti2_bcc_distorted_idx_2530 formula_string=Ti2 composition_str=Ti2 structure_index=2530 date_added_to_db=2025-04-14T00:32:28.613155 structure_id=25016 energy=-9.595545959472656 stress="-1.0248598367264354 -0.2896391783374599 0.4945103365722512 -0.2896391783374599 -1.0415623710491733 0.2645102384457413 0.4945103365722512 0.2645102384457413 -0.9838736500928975" calculation_info="_JSON {\"calculation_id\": 25011, \"calculator\": \"vasp\", \"calculation_source_path\": \"/home/myless/Calc_VASP/MRS/job_gen_7-2025-04-10/Ti/Ti2_bcc_distorted_idx_2530\", \"nbands\": 16, \"parser\": \"ase_outcar\", \"potcar\": \"PAW_PBE Ti_pv 07Sep2000\", \"kpoints\": [16, 18, 17], \"date_run\": \"2025.03.17  16:06:27\", \"vasp_version\": \"vasp.6.4.2 20Jul23\", \"resources_used\": {\"nodes\": 1, \"mpi_ranks\": 4, \"gpus_detected\": true, \"threads_per_rank\": 8}, \"calculation_type\": \"static\"}" parent_id=25016 step=10 variance=0.9196071028709412 loss=0.9196071028709412 pbc="T T T"
Ti      -0.03570091      -0.06310563      -0.04731088       0.02025450       0.00410121       0.00925601
Ti       1.53570451       1.27920648       1.62281917      -0.02025454      -0.00410128      -0.00925602
2
Lattice="2.950727775 -0.23302547 0.610932352 -0.274823862 2.591931336 -0.005336074 0.452794487 0.322589843 2.717318711" Properties=species:S:1:pos:R:3:forces:R:3 generation=8 config_type=bcc_distorted_aa source_path=/home/myless/Calc_VASP/MRS/job_gen_7-2025-04-10/Ti/Ti2_bcc_distorted_idx_2530 formula_string=Ti2 composition_str=Ti2 structure_index=2530 date_added_to_db=2025-04-14T00:32:28.613155 structure_id=25016 energy=-9.595521163940429 stress="-1.0248598367264354 -0.2896391783374599 0.4945103365722512 -0.2896391783374599 -1.0415623710491733 0.2645102384457413 0.4945103365722512 0.2645102384457413 -0.9838736500928975" calculation_info="_JSON {\"calculation_id\": 25011, \"calculator\": \"vasp\", \"calculation_source_path\": \"/home/myless/Calc_VASP/MRS/job_gen_7-2025-04-10/Ti/Ti2_bcc_distorted_idx_2530\", \"nbands\": 16, \"parser\": \"ase_outcar\", \"potcar\": \"PAW_PBE Ti_pv 07Sep2000\", \"kpoints\": [16, 18, 17], \"date_run\": \"2025.03.17  16:06:27\", \"vasp_version\": \"vasp.6.4.2 20Jul23\", \"resources_used\": {\"nodes\": 1, \"mpi_ranks\": 4, \"gpus_detected\": true, \"threads_per_rank\": 8}, \"calculation_type\": \"static\"}" parent_id=25016 step=11 variance=0.9503800868988037 loss=0.9503800868988037 pbc="T T T"
Ti      -0.03698221      -0.06581575      -0.04925996       0.02001302       0.00476676       0.01211049
Ti       1.53532435       1.27618731       1.62163596      -0.02001290      -0.00476680      -0.01211038
2
Lattice="2.950727775 -0.23302547 0.610932352 -0.274823862 2.591931336 -0.005336074 0.452794487 0.322589843 2.717318711" Properties=species:S:1:pos:R:3:forces:R:3 generation=8 config_type=bcc_distorted_aa source_path=/home/myless/Calc_VASP/MRS/job_gen_7-2025-04-10/Ti/Ti2_bcc_distorted_idx_2530 formula_string=Ti2 composition_str=Ti2 structure_index=2530 date_added_to_db=2025-04-14T00:32:28.613155 structure_id=25016 energy=-9.59549674987793 stress="-1.0248598367264354 -0.2896391783374599 0.4945103365722512 -0.2896391783374599 -1.0415623710491733 0.2645102384457413 0.4945103365722512 0.2645102384457413 -0.9838736500928975" calculation_info="_JSON {\"calculation_id\": 25011, \"calculator\": \"vasp\", \"calculation_source_path\": \"/home/myless/Calc_VASP/MRS/job_gen_7-2025-04-10/Ti/Ti2_bcc_distorted_idx_2530\", \"nbands\": 16, \"parser\": \"ase_outcar\", \"potcar\": \"PAW_PBE Ti_pv 07Sep2000\", \"kpoints\": [16, 18, 17], \"date_run\": \"2025.03.17  16:06:27\", \"vasp_version\": \"vasp.6.4.2 20Jul23\", \"resources_used\": {\"nodes\": 1, \"mpi_ranks\": 4, \"gpus_detected\": true, \"threads_per_rank\": 8}, \"calculation_type\": \"static\"}" parent_id=25016 step=12 variance=0.9659626483917236 loss=0.9659626483917236 pbc="T T T"
Ti      -0.03803836      -0.06818368      -0.05111877       0.01606878       0.00122770       0.01809773
Ti       1.53486029       1.27339014       1.62066824      -0.01606881      -0.00122755      -0.01809784
2
Lattice="2.950727775 -0.23302547 0.610932352 -0.274823862 2.591931336 -0.005336074 0.452794487 0.322589843 2.717318711" Properties=species:S:1:pos:R:3:forces:R:3 generation=8 config_type=bcc_distorted_aa source_path=/home/myless/Calc_VASP/MRS/job_gen_7-2025-04-10/Ti/Ti2_bcc_distorted_idx_2530 formula_string=Ti2 composition_str=Ti2 structure_index=2530 date_added_to_db=2025-04-14T00:32:28.613155 structure_id=25016 energy=-9.5954740524292 stress="-1.0248598367264354 -0.2896391783374599 0.4945103365722512 -0.2896391783374599 -1.0415623710491733 0.2645102384457413 0.4945103365722512 0.2645102384457413 -0.9838736500928975" calculation_info="_JSON {\"calculation_id\": 25011, \"calculator\": \"vasp\", \"calculation_source_path\": \"/home/myless/Calc_VASP/MRS/job_gen_7-2025-04-10/Ti/Ti2_bcc_distorted_idx_2530\", \"nbands\": 16, \"parser\": \"ase_outcar\", \"potcar\": \"PAW_PBE Ti_pv 07Sep2000\", \"kpoints\": [16, 18, 17], \"date_run\": \"2025.03.17  16:06:27\", \"vasp_version\": \"vasp.6.4.2 20Jul23\", \"resources_used\": {\"nodes\": 1, \"mpi_ranks\": 4, \"gpus_detected\": true, \"threads_per_rank\": 8}, \"calculation_type\": \"static\"}" parent_id=25016 step=13 variance=0.9553989171981812 loss=0.9553989171981812 pbc="T T T"
Ti      -0.03910222      -0.07036071      -0.05273725       0.01504512       0.00109387       0.02118771
Ti       1.53451569       1.27089395       1.61970350      -0.01504512      -0.00109393      -0.02118780
2
Lattice="2.950727775 -0.23302547 0.610932352 -0.274823862 2.591931336 -0.005336074 0.452794487 0.322589843 2.717318711" Properties=species:S:1:pos:R:3:forces:R:3 generation=8 config_type=bcc_distorted_aa source_path=/home/myless/Calc_VASP/MRS/job_gen_7-2025-04-10/Ti/Ti2_bcc_distorted_idx_2530 formula_string=Ti2 composition_str=Ti2 structure_index=2530 date_added_to_db=2025-04-14T00:32:28.613155 structure_id=25016 energy=-9.595452308654785 stress="-1.0248598367264354 -0.2896391783374599 0.4945103365722512 -0.2896391783374599 -1.0415623710491733 0.2645102384457413 0.4945103365722512 0.2645102384457413 -0.9838736500928975" calculation_info="_JSON {\"calculation_id\": 25011, \"calculator\": \"vasp\", \"calculation_source_path\": \"/home/myless/Calc_VASP/MRS/job_gen_7-2025-04-10/Ti/Ti2_bcc_distorted_idx_2530\", \"nbands\": 16, \"parser\": \"ase_outcar\", \"potcar\": \"PAW_PBE Ti_pv 07Sep2000\", \"kpoints\": [16, 18, 17], \"date_run\": \"2025.03.17  16:06:27\", \"vasp_version\": \"vasp.6.4.2 20Jul23\", \"resources_used\": {\"nodes\": 1, \"mpi_ranks\": 4, \"gpus_detected\": true, \"threads_per_rank\": 8}, \"calculation_type\": \"static\"}" parent_id=25016 step=14 variance=0.9654718041419983 loss=0.9654718041419983 pbc="T T T"
Ti      -0.04021147      -0.07239579      -0.05411028       0.01797274       0.00544180       0.02048800
Ti       1.53431954       1.26869520       1.61870912      -0.01797260      -0.00544177      -0.02048784
2
Lattice="2.950727775 -0.23302547 0.610932352 -0.274823862 2.591931336 -0.005336074 0.452794487 0.322589843 2.717318711" Properties=species:S:1:pos:R:3:forces:R:3 generation=8 config_type=bcc_distorted_aa source_path=/home/myless/Calc_VASP/MRS/job_gen_7-2025-04-10/Ti/Ti2_bcc_distorted_idx_2530 formula_string=Ti2 composition_str=Ti2 structure_index=2530 date_added_to_db=2025-04-14T00:32:28.613155 structure_id=25016 energy=-9.595428276062012 stress="-1.0248598367264354 -0.2896391783374599 0.4945103365722512 -0.2896391783374599 -1.0415623710491733 0.2645102384457413 0.4945103365722512 0.2645102384457413 -0.9838736500928975" calculation_info="_JSON {\"calculation_id\": 25011, \"calculator\": \"vasp\", \"calculation_source_path\": \"/home/myless/Calc_VASP/MRS/job_gen_7-2025-04-10/Ti/Ti2_bcc_distorted_idx_2530\", \"nbands\": 16, \"parser\": \"ase_outcar\", \"potcar\": \"PAW_PBE Ti_pv 07Sep2000\", \"kpoints\": [16, 18, 17], \"date_run\": \"2025.03.17  16:06:27\", \"vasp_version\": \"vasp.6.4.2 20Jul23\", \"resources_used\": {\"nodes\": 1, \"mpi_ranks\": 4, \"gpus_detected\": true, \"threads_per_rank\": 8}, \"calculation_type\": \"static\"}" parent_id=25016 step=15 variance=0.9540746212005615 loss=0.9540746212005615 pbc="T T T"
Ti      -0.04122251      -0.07425865      -0.05536445       0.02081015       0.00940817       0.01969709
Ti       1.53412520       1.26671611       1.61780288      -0.02081018      -0.00940824      -0.01969703
2
Lattice="2.950727775 -0.23302547 0.610932352 -0.274823862 2.591931336 -0.005336074 0.452794487 0.322589843 2.717318711" Properties=species:S:1:pos:R:3:forces:R:3 generation=8 config_type=bcc_distorted_aa source_path=/home/myless/Calc_VASP/MRS/job_gen_7-2025-04-10/Ti/Ti2_bcc_distorted_idx_2530 formula_string=Ti2 composition_str=Ti2 structure_index=2530 date_added_to_db=2025-04-14T00:32:28.613155 structure_id=25016 energy=-9.59541130065918 stress="-1.0248598367264354 -0.2896391783374599 0.4945103365722512 -0.2896391783374599 -1.0415623710491733 0.2645102384457413 0.4945103365722512 0.2645102384457413 -0.9838736500928975" calculation_info="_JSON {\"calculation_id\": 25011, \"calculator\": \"vasp\", \"calculation_source_path\": \"/home/myless/Calc_VASP/MRS/job_gen_7-2025-04-10/Ti/Ti2_bcc_distorted_idx_2530\", \"nbands\": 16, \"parser\": \"ase_outcar\", \"potcar\": \"PAW_PBE Ti_pv 07Sep2000\", \"kpoints\": [16, 18, 17], \"date_run\": \"2025.03.17  16:06:27\", \"vasp_version\": \"vasp.6.4.2 20Jul23\", \"resources_used\": {\"nodes\": 1, \"mpi_ranks\": 4, \"gpus_detected\": true, \"threads_per_rank\": 8}, \"calculation_type\": \"static\"}" parent_id=25016 step=16 variance=0.9486795663833618 loss=0.9486795663833618 pbc="T T T"
Ti      -0.04207481      -0.07593970      -0.05656330       0.02167715       0.01076238       0.02055735
Ti       1.53387091       1.26490757       1.61703904      -0.02167713      -0.01076245      -0.02055722
2
Lattice="2.950727775 -0.23302547 0.610932352 -0.274823862 2.591931336 -0.005336074 0.452794487 0.322589843 2.717318711" Properties=species:S:1:pos:R:3:forces:R:3 generation=8 config_type=bcc_distorted_aa source_path=/home/myless/Calc_VASP/MRS/job_gen_7-2025-04-10/Ti/Ti2_bcc_distorted_idx_2530 formula_string=Ti2 composition_str=Ti2 structure_index=2530 date_added_to_db=2025-04-14T00:32:28.613155 structure_id=25016 energy=-9.595392799377441 stress="-1.0248598367264354 -0.2896391783374599 0.4945103365722512 -0.2896391783374599 -1.0415623710491733 0.2645102384457413 0.4945103365722512 0.2645102384457413 -0.9838736500928975" calculation_info="_JSON {\"calculation_id\": 25011, \"calculator\": \"vasp\", \"calculation_source_path\": \"/home/myless/Calc_VASP/MRS/job_gen_7-2025-04-10/Ti/Ti2_bcc_distorted_idx_2530\", \"nbands\": 16, \"parser\": \"ase_outcar\", \"potcar\": \"PAW_PBE Ti_pv 07Sep2000\", \"kpoints\": [16, 18, 17], \"date_run\": \"2025.03.17  16:06:27\", \"vasp_version\": \"vasp.6.4.2 20Jul23\", \"resources_used\": {\"nodes\": 1, \"mpi_ranks\": 4, \"gpus_detected\": true, \"threads_per_rank\": 8}, \"calculation_type\": \"static\"}" parent_id=25016 step=17 variance=0.9523671865463257 loss=0.9523671865463257 pbc="T T T"
Ti      -0.04278060      -0.07745676      -0.05771476       0.02069028       0.00966984       0.02297818
Ti       1.53356092       1.26325170       1.61640722      -0.02069027      -0.00966985      -0.02297811
2
Lattice="2.950727775 -0.23302547 0.610932352 -0.274823862 2.591931336 -0.005336074 0.452794487 0.322589843 2.717318711" Properties=species:S:1:pos:R:3:forces:R:3 generation=8 config_type=bcc_distorted_aa source_path=/home/myless/Calc_VASP/MRS/job_gen_7-2025-04-10/Ti/Ti2_bcc_distorted_idx_2530 formula_string=Ti2 composition_str=Ti2 structure_index=2530 date_added_to_db=2025-04-14T00:32:28.613155 structure_id=25016 energy=-9.595373725891113 stress="-1.0248598367264354 -0.2896391783374599 0.4945103365722512 -0.2896391783374599 -1.0415623710491733 0.2645102384457413 0.4945103365722512 0.2645102384457413 -0.9838736500928975" calculation_info="_JSON {\"calculation_id\": 25011, \"calculator\": \"vasp\", \"calculation_source_path\": \"/home/myless/Calc_VASP/MRS/job_gen_7-2025-04-10/Ti/Ti2_bcc_distorted_idx_2530\", \"nbands\": 16, \"parser\": \"ase_outcar\", \"potcar\": \"PAW_PBE Ti_pv 07Sep2000\", \"kpoints\": [16, 18, 17], \"date_run\": \"2025.03.17  16:06:27\", \"vasp_version\": \"vasp.6.4.2 20Jul23\", \"resources_used\": {\"nodes\": 1, \"mpi_ranks\": 4, \"gpus_detected\": true, \"threads_per_rank\": 8}, \"calculation_type\": \"static\"}" parent_id=25016 step=18 variance=0.9529057741165161 loss=0.9529057741165161 pbc="T T T"
Ti      -0.04338449      -0.07884078      -0.05880008       0.01892187       0.00740437       0.02599367
Ti       1.53322946       1.26174804       1.61586681      -0.01892204      -0.00740438      -0.02599357
2