8
Lattice="4.151697876 0.202804032 -0.310751134 0.134823879 4.207886059 0.121554982 -0.145371719 -0.030572168 4.641215511" Properties=species:S:1:pos:R:3:forces:R:3 generation=7 config_type=A15 source_path=/home/myless/Calc_VASP/MRS/job_gen_7-2025-04-10/Cr/Cr8_A15_idx_2861 formula_string=Cr8 composition_str=Cr8 structure_index=2861 date_added_to_db=2025-04-14T00:14:58.247650 structure_id=22556 energy=-72.42032 stress="-0.4484029355273439 0.051395126436736986 -0.06365188374118111 0.051395126436736986 -0.4042725387395692 0.003728421649928497 -0.06365188374118111 0.003728421649928497 -0.15374789945255954" calculation_info="_JSON {\"calculation_id\": 22551, \"calculator\": \"vasp\", \"calculation_source_path\": \"/home/myless/Calc_VASP/MRS/job_gen_7-2025-04-10/Cr/Cr8_A15_idx_2861\", \"nbands\": 64, \"parser\": \"ase_outcar\", \"potcar\": \"PAW_PBE Cr_pv 02Aug2007\", \"kpoints\": [12, 11, 10], \"date_run\": \"2025.03.19  16:10:45\", \"vasp_version\": \"vasp.6.4.2 20Jul23\", \"resources_used\": {\"nodes\": 1, \"mpi_ranks\": 64, \"gpus_detected\": false, \"threads_per_rank\": 2}, \"calculation_type\": \"static\"}" pbc="T T T"
Cr       0.00000000       0.00000000       0.00000000       0.00000000       0.00000000       0.00000000
Cr       2.07058000       2.19006000       2.22601000       0.00000000       0.00000000       0.00000000
Cr       1.10534000       2.15464000      -0.01691000       0.19725800       0.08954500      -0.15448500
Cr       3.03581000       2.22547000       4.46893000      -0.19725800      -0.08954500       0.15448500
Cr      -0.03898000       1.03669000       2.35100000      -0.09410100      -0.22298100      -0.01294200
Cr       0.02843000       3.14063000       2.41177000       0.09410100       0.22298100       0.01294200
Cr       2.03951000       0.09376000       1.00493000      -0.19040100      -0.05618400      -0.00710300
Cr       1.96682000       0.07847000       3.32554000       0.19040100       0.05618400       0.00710300
8
Lattice="4.151697876 0.202804032 -0.310751134 0.134823879 4.207886059 0.121554982 -0.145371719 -0.030572168 4.641215511" Properties=species:S:1:pos:R:3:forces:R:3 generation=8 config_type=A15_aa source_path=/home/myless/Calc_VASP/MRS/job_gen_7-2025-04-10/Cr/Cr8_A15_idx_2861 formula_string=Cr8 composition_str=Cr8 structure_index=2861 date_added_to_db=2025-04-14T00:14:58.247650 structure_id=22556 energy=-72.35672760009766 stress="-0.4484029355273439 0.051395126436736986 -0.06365188374118111 0.051395126436736986 -0.4042725387395692 0.003728421649928497 -0.06365188374118111 0.003728421649928497 -0.15374789945255954" calculation_info="_JSON {\"calculation_id\": 22551, \"calculator\": \"vasp\", \"calculation_source_path\": \"/home/myless/Calc_VASP/MRS/job_gen_7-2025-04-10/Cr/Cr8_A15_idx_2861\", \"nbands\": 64, \"parser\": \"ase_outcar\", \"potcar\": \"PAW_PBE Cr_pv 02Aug2007\", \"kpoints\": [12, 11, 10], \"date_run\": \"2025.03.19  16:10:45\", \"vasp_version\": \"vasp.6.4.2 20Jul23\", \"resources_used\": {\"nodes\": 1, \"mpi_ranks\": 64, \"gpus_detected\": false, \"threads_per_rank\": 2}, \"calculation_type\": \"static\"}" parent_id=22556 step=0 variance=0.33557823300361633 loss=0.33557823300361633 pbc="T T T"
Cr       0.00000000       0.00000000       0.00000000       0.00003747      -0.00004825       0.00000610
Cr       2.07058000       2.19006000       2.22601000      -0.00011040      -0.00001181       0.00000728
Cr       1.10534000       2.15464000      -0.01691000       0.17001894       0.03138240      -0.02844268
Cr       3.03581000       2.22547000       4.46893000      -0.17001203      -0.03125351       0.02845868
Cr      -0.03898000       1.03669000       2.35100000      -0.04142397      -0.12710287       0.01937694
Cr       0.02843000       3.14063000       2.41177000       0.04157636       0.12704301      -0.01936100
Cr       2.03951000       0.09376000       1.00493000      -0.15128207      -0.06129068      -0.08017164
Cr       1.96682000       0.07847000       3.32554000       0.15119573       0.06128188       0.08012629
8
Lattice="4.151697876 0.202804032 -0.310751134 0.134823879 4.207886059 0.121554982 -0.145371719 -0.030572168 4.641215511" Properties=species:S:1:pos:R:3:forces:R:3 generation=8 config_type=A15_aa source_path=/home/myless/Calc_VASP/MRS/job_gen_7-2025-04-10/Cr/Cr8_A15_idx_2861 formula_string=Cr8 composition_str=Cr8 structure_index=2861 date_added_to_db=2025-04-14T00:14:58.247650 structure_id=22556 energy=-72.35672760009766 stress="-0.4484029355273439 0.051395126436736986 -0.06365188374118111 0.051395126436736986 -0.4042725387395692 0.003728421649928497 -0.06365188374118111 0.003728421649928497 -0.15374789945255954" calculation_info="_JSON {\"calculation_id\": 22551, \"calculator\": \"vasp\", \"calculation_source_path\": \"/home/myless/Calc_VASP/MRS/job_gen_7-2025-04-10/Cr/Cr8_A15_idx_2861\", \"nbands\": 64, \"parser\": \"ase_outcar\", \"potcar\": \"PAW_PBE Cr_pv 02Aug2007\", \"kpoints\": [12, 11, 10], \"date_run\": \"2025.03.19  16:10:45\", \"vasp_version\": \"vasp.6.4.2 20Jul23\", \"resources_used\": {\"nodes\": 1, \"mpi_ranks\": 64, \"gpus_detected\": false, \"threads_per_rank\": 2}, \"calculation_type\": \"static\"}" parent_id=22556 step=1 variance=0.3355141878128052 loss=0.3355141878128052 pbc="T T T"
Cr       0.01000000       0.01000000       0.01000000       0.00003706      -0.00004787       0.00000654
Cr       2.08058000       2.20006000       2.23601000      -0.00011043      -0.00001166       0.00000873
Cr       1.11534000       2.16464000      -0.00691000       0.17001885       0.03138260      -0.02844245
Cr       3.04581000       2.23547000       4.47893000      -0.17001233      -0.03125354       0.02845537
Cr      -0.02898000       1.04669000       2.36100000      -0.04142352      -0.12710263       0.01937755
Cr       0.03843000       3.15063000       2.42177000       0.04157657       0.12704286      -0.01936059
Cr       2.04951000       0.10376000       1.01493000      -0.15128236      -0.06129136      -0.08017155
Cr       1.97682000       0.08847000       3.33554000       0.15119621       0.06128181       0.08012636
8
Lattice="4.151697876 0.202804032 -0.310751134 0.134823879 4.207886059 0.121554982 -0.145371719 -0.030572168 4.641215511" Properties=species:S:1:pos:R:3:forces:R:3 generation=8 config_type=A15_aa source_path=/home/myless/Calc_VASP/MRS/job_gen_7-2025-04-10/Cr/Cr8_A15_idx_2861 formula_string=Cr8 composition_str=Cr8 structure_index=2861 date_added_to_db=2025-04-14T00:14:58.247650 structure_id=22556 energy=-72.35672454833984 stress="-0.4484029355273439 0.051395126436736986 -0.06365188374118111 0.051395126436736986 -0.4042725387395692 0.003728421649928497 -0.06365188374118111 0.003728421649928497 -0.15374789945255954" calculation_info="_JSON {\"calculation_id\": 22551, \"calculator\": \"vasp\", \"calculation_source_path\": \"/home/myless/Calc_VASP/MRS/job_gen_7-2025-04-10/Cr/Cr8_A15_idx_2861\", \"nbands\": 64, \"parser\": \"ase_outcar\", \"potcar\": \"PAW_PBE Cr_pv 02Aug2007\", \"kpoints\": [12, 11, 10], \"date_run\": \"2025.03.19  16:10:45\", \"vasp_version\": \"vasp.6.4.2 20Jul23\", \"resources_used\": {\"nodes\": 1, \"mpi_ranks\": 64, \"gpus_detected\": false, \"threads_per_rank\": 2}, \"calculation_type\": \"static\"}" parent_id=22556 step=2 variance=0.3381727635860443 loss=0.3381727635860443 pbc="T T T"
Cr       0.01999247       0.02000820       0.01999556       0.00019023      -0.00003810       0.00021295
Cr       2.09057947       2.21006039       2.24602110      -0.00013786      -0.00086488      -0.00011598
Cr       1.12533325       2.17464021       0.00309270       0.17034064       0.03086663      -0.02833291
Cr       3.05581695       2.24546885       4.48893753      -0.17019650      -0.03177387       0.02853948
Cr      -0.01897981       1.05669308       2.37101154      -0.04133301      -0.12709433       0.01926909
Cr       0.04843461       3.16064348       2.43178268       0.04157723       0.12668073      -0.01956757
Cr       2.05951845       0.11370750       1.02493279      -0.15150397      -0.06043399      -0.08012740
Cr       1.98682018       0.09837831       3.34554591       0.15106319       0.06265784       0.08012241
8
Lattice="4.151697876 0.202804032 -0.310751134 0.134823879 4.207886059 0.121554982 -0.145371719 -0.030572168 4.641215511" Properties=species:S:1:pos:R:3:forces:R:3 generation=8 config_type=A15_aa source_path=/home/myless/Calc_VASP/MRS/job_gen_7-2025-04-10/Cr/Cr8_A15_idx_2861 formula_string=Cr8 composition_str=Cr8 structure_index=2861 date_added_to_db=2025-04-14T00:14:58.247650 structure_id=22556 energy=-72.35179290771484 stress="-0.4484029355273439 0.051395126436736986 -0.06365188374118111 0.051395126436736986 -0.4042725387395692 0.003728421649928497 -0.06365188374118111 0.003728421649928497 -0.15374789945255954" calculation_info="_JSON {\"calculation_id\": 22551, \"calculator\": \"vasp\", \"calculation_source_path\": \"/home/myless/Calc_VASP/MRS/job_gen_7-2025-04-10/Cr/Cr8_A15_idx_2861\", \"nbands\": 64, \"parser\": \"ase_outcar\", \"potcar\": \"PAW_PBE Cr_pv 02Aug2007\", \"kpoints\": [12, 11, 10], \"date_run\": \"2025.03.19  16:10:45\", \"vasp_version\": \"vasp.6.4.2 20Jul23\", \"resources_used\": {\"nodes\": 1, \"mpi_ranks\": 64, \"gpus_detected\": false, \"threads_per_rank\": 2}, \"calculation_type\": \"static\"}" parent_id=22556 step=3 variance=0.30121660232543945 loss=0.30121660232543945 pbc="T T T"
Cr       0.02727526       0.02551613       0.02590765      -0.16685116       0.00080290      -0.10084686
Cr       2.09801408       2.21826304       2.24593711       0.02420113      -0.16347975       0.14353615
Cr       1.13344965       2.17862230       0.01267958       0.08274864      -0.01397209      -0.13536556
Cr       3.06094773       2.24944860       4.49861709      -0.14465879      -0.07130768      -0.08579320
Cr      -0.01122098       1.06465208       2.37166201      -0.11680832      -0.14225627       0.08662604
Cr       0.05630864       3.16987378       2.43276298      -0.03999640       0.07095178       0.04453890
Cr       2.05552544       0.10861299       1.02772948       0.02175092       0.09991903      -0.05440441
Cr       1.98173657       0.09335908       3.34859442       0.33961388       0.21934214       0.10170891
8
Lattice="4.151697876 0.202804032 -0.310751134 0.134823879 4.207886059 0.121554982 -0.145371719 -0.030572168 4.641215511" Properties=species:S:1:pos:R:3:forces:R:3 generation=8 config_type=A15_aa source_path=/home/myless/Calc_VASP/MRS/job_gen_7-2025-04-10/Cr/Cr8_A15_idx_2861 formula_string=Cr8 composition_str=Cr8 structure_index=2861 date_added_to_db=2025-04-14T00:14:58.247650 structure_id=22556 energy=-72.34146423339844 stress="-0.4484029355273439 0.051395126436736986 -0.06365188374118111 0.051395126436736986 -0.4042725387395692 0.003728421649928497 -0.06365188374118111 0.003728421649928497 -0.15374789945255954" calculation_info="_JSON {\"calculation_id\": 22551, \"calculator\": \"vasp\", \"calculation_source_path\": \"/home/myless/Calc_VASP/MRS/job_gen_7-2025-04-10/Cr/Cr8_A15_idx_2861\", \"nbands\": 64, \"parser\": \"ase_outcar\", \"potcar\": \"PAW_PBE Cr_pv 02Aug2007\", \"kpoints\": [12, 11, 10], \"date_run\": \"2025.03.19  16:10:45\", \"vasp_version\": \"vasp.6.4.2 20Jul23\", \"resources_used\": {\"nodes\": 1, \"mpi_ranks\": 64, \"gpus_detected\": false, \"threads_per_rank\": 2}, \"calculation_type\": \"static\"}" parent_id=22556 step=4 variance=0.2016800045967102 loss=0.2016800045967102 pbc="T T T"
Cr       0.03322821       0.03022791       0.03044108      -0.29755002      -0.01011491      -0.16325703
Cr       2.10442365       2.22495041       2.24708671       0.03731861      -0.28764763       0.23684052
Cr       1.14032993       2.18172684       0.02023599       0.00143799      -0.04361147      -0.20543131
Cr       3.06457155       2.25224315       4.50630003      -0.10530058      -0.08851866      -0.16328414
Cr      -0.00492156       1.06822184       2.37279061      -0.17353366      -0.07829636       0.13150224
Cr       0.06273214       3.17855442       2.43506601      -0.10941146      -0.03639995       0.07160576
Cr       2.05280894       0.10599272       1.02959001       0.15829274       0.20524220      -0.02680991
Cr       1.97786898       0.08942102       3.35124144       0.48874626       0.33934674       0.11883384
8
Lattice="4.151697876 0.202804032 -0.310751134 0.134823879 4.207886059 0.121554982 -0.145371719 -0.030572168 4.641215511" Properties=species:S:1:pos:R:3:forces:R:3 generation=8 config_type=A15_aa source_path=/home/myless/Calc_VASP/MRS/job_gen_7-2025-04-10/Cr/Cr8_A15_idx_2861 formula_string=Cr8 composition_str=Cr8 structure_index=2861 date_added_to_db=2025-04-14T00:14:58.247650 structure_id=22556 energy=-72.32864990234376 stress="-0.4484029355273439 0.051395126436736986 -0.06365188374118111 0.051395126436736986 -0.4042725387395692 0.003728421649928497 -0.06365188374118111 0.003728421649928497 -0.15374789945255954" calculation_info="_JSON {\"calculation_id\": 22551, \"calculator\": \"vasp\", \"calculation_source_path\": \"/home/myless/Calc_VASP/MRS/job_gen_7-2025-04-10/Cr/Cr8_A15_idx_2861\", \"nbands\": 64, \"parser\": \"ase_outcar\", \"potcar\": \"PAW_PBE Cr_pv 02Aug2007\", \"kpoints\": [12, 11, 10], \"date_run\": \"2025.03.19  16:10:45\", \"vasp_version\": \"vasp.6.4.2 20Jul23\", \"resources_used\": {\"nodes\": 1, \"mpi_ranks\": 64, \"gpus_detected\": false, \"threads_per_rank\": 2}, \"calculation_type\": \"static\"}" parent_id=22556 step=5 variance=0.1473177969455719 loss=0.1473177969455719 pbc="T T T"
Cr       0.03825394       0.03430619       0.03412260      -0.40158635      -0.02238976      -0.20601562
Cr       2.11012346       2.23060071       2.24868999       0.04183169      -0.39147383       0.30344802
Cr       1.14622427       2.18430690       0.02646937      -0.06961492      -0.06815043      -0.25560290
Cr       3.06742628       2.25446938       4.51265435      -0.06370017      -0.09947537      -0.22022295
Cr       0.00036169       1.07079020       2.37414422      -0.21554323      -0.01186983       0.16252866
Cr       0.06810089       3.18610682       2.43755326      -0.16462377      -0.13743731       0.08550113
Cr       2.05103587       0.10393810       1.03124981       0.26599520       0.29225841      -0.00423125
Cr       1.97501505       0.08616255       3.35352217       0.60724151       0.43853807       0.13459477
8
Lattice="4.151697876 0.202804032 -0.310751134 0.134823879 4.207886059 0.121554982 -0.145371719 -0.030572168 4.641215511" Properties=species:S:1:pos:R:3:forces:R:3 generation=8 config_type=A15_aa source_path=/home/myless/Calc_VASP/MRS/job_gen_7-2025-04-10/Cr/Cr8_A15_idx_2861 formula_string=Cr8 composition_str=Cr8 structure_index=2861 date_added_to_db=2025-04-14T00:14:58.247650 structure_id=22556 energy=-72.31495056152343 stress="-0.4484029355273439 0.051395126436736986 -0.06365188374118111 0.051395126436736986 -0.4042725387395692 0.003728421649928497 -0.06365188374118111 0.003728421649928497 -0.15374789945255954" calculation_info="_JSON {\"calculation_id\": 22551, \"calculator\": \"vasp\", \"calculation_source_path\": \"/home/myless/Calc_VASP/MRS/job_gen_7-2025-04-10/Cr/Cr8_A15_idx_2861\", \"nbands\": 64, \"parser\": \"ase_outcar\", \"potcar\": \"PAW_PBE Cr_pv 02Aug2007\", \"kpoints\": [12, 11, 10], \"date_run\": \"2025.03.19  16:10:45\", \"vasp_version\": \"vasp.6.4.2 20Jul23\", \"resources_used\": {\"nodes\": 1, \"mpi_ranks\": 64, \"gpus_detected\": false, \"threads_per_rank\": 2}, \"calculation_type\": \"static\"}" parent_id=22556 step=6 variance=0.11339110881090164 loss=0.11339110881090164 pbc="T T T"
Cr       0.04258225       0.03788604       0.03721488      -0.48741418      -0.03467732      -0.23718472
Cr       2.11520917       2.23547080       2.25048714       0.04181504      -0.48018354       0.35316062
Cr       1.15133230       2.18649819       0.03175096      -0.13165021      -0.08864634      -0.29341570
Cr       3.06979914       2.25631447       4.51803930      -0.02363967      -0.10680749      -0.26394671
Cr       0.00488663       1.07318215       2.37558842      -0.24816796       0.03940489       0.18448423
Cr       0.07269447       3.19242123       2.43994183      -0.20997474      -0.21801563       0.09339124
Cr       2.04979205       0.10225580       1.03273294       0.35452366       0.36653286       0.01531934
Cr       1.97281578       0.08341909       3.35555475       0.70450801       0.52239263       0.14819169
8
Lattice="4.151697876 0.202804032 -0.310751134 0.134823879 4.207886059 0.121554982 -0.145371719 -0.030572168 4.641215511" Properties=species:S:1:pos:R:3:forces:R:3 generation=8 config_type=A15_aa source_path=/home/myless/Calc_VASP/MRS/job_gen_7-2025-04-10/Cr/Cr8_A15_idx_2861 formula_string=Cr8 composition_str=Cr8 structure_index=2861 date_added_to_db=2025-04-14T00:14:58.247650 structure_id=22556 energy=-72.30119476318359 stress="-0.4484029355273439 0.051395126436736986 -0.06365188374118111 0.051395126436736986 -0.4042725387395692 0.003728421649928497 -0.06365188374118111 0.003728421649928497 -0.15374789945255954" calculation_info="_JSON {\"calculation_id\": 22551, \"calculator\": \"vasp\", \"calculation_source_path\": \"/home/myless/Calc_VASP/MRS/job_gen_7-2025-04-10/Cr/Cr8_A15_idx_2861\", \"nbands\": 64, \"parser\": \"ase_outcar\", \"potcar\": \"PAW_PBE Cr_pv 02Aug2007\", \"kpoints\": [12, 11, 10], \"date_run\": \"2025.03.19  16:10:45\", \"vasp_version\": \"vasp.6.4.2 20Jul23\", \"resources_used\": {\"nodes\": 1, \"mpi_ranks\": 64, \"gpus_detected\": false, \"threads_per_rank\": 2}, \"calculation_type\": \"static\"}" parent_id=22556 step=7 variance=0.09337382018566132 loss=0.09337382018566132 pbc="T T T"
Cr       0.04635972       0.04105699       0.03987120      -0.56007212      -0.04651706      -0.26103681
Cr       2.11975398       2.23972425       2.25234691       0.03954995      -0.55709070       0.39143121
Cr       1.15579786       2.18838457       0.03630607      -0.18593869      -0.10589553      -0.32299462
Cr       3.07183577       2.25787255       4.52267765       0.01346679      -0.11170610      -0.29857105
Cr       0.00881844       1.07553533       2.37703920      -0.27446806       0.07613628       0.20043787
Cr       0.07669043       3.19772170       2.44214145      -0.24836731      -0.28038159       0.09827213
Cr       2.04886387       0.10084373       1.03406833       0.42942515       0.43101612       0.03254572
Cr       1.97105168       0.08107264       3.35738496       0.78640443       0.59443867       0.15991567
8
Lattice="4.151697876 0.202804032 -0.310751134 0.134823879 4.207886059 0.121554982 -0.145371719 -0.030572168 4.641215511" Properties=species:S:1:pos:R:3:forces:R:3 generation=8 config_type=A15_aa source_path=/home/myless/Calc_VASP/MRS/job_gen_7-2025-04-10/Cr/Cr8_A15_idx_2861 formula_string=Cr8 composition_str=Cr8 structure_index=2861 date_added_to_db=2025-04-14T00:14:58.247650 structure_id=22556 energy=-72.28782348632812 stress="-0.4484029355273439 0.051395126436736986 -0.06365188374118111 0.051395126436736986 -0.4042725387395692 0.003728421649928497 -0.06365188374118111 0.003728421649928497 -0.15374789945255954" calculation_info="_JSON {\"calculation_id\": 22551, \"calculator\": \"vasp\", \"calculation_source_path\": \"/home/myless/Calc_VASP/MRS/job_gen_7-2025-04-10/Cr/Cr8_A15_idx_2861\", \"nbands\": 64, \"parser\": \"ase_outcar\", \"potcar\": \"PAW_PBE Cr_pv 02Aug2007\", \"kpoints\": [12, 11, 10], \"date_run\": \"2025.03.19  16:10:45\", \"vasp_version\": \"vasp.6.4.2 20Jul23\", \"resources_used\": {\"nodes\": 1, \"mpi_ranks\": 64, \"gpus_detected\": false, \"threads_per_rank\": 2}, \"calculation_type\": \"static\"}" parent_id=22556 step=8 variance=0.08092180639505386 loss=0.08092180639505386 pbc="T T T"
Cr       0.04968776       0.04388503       0.04218519      -0.62256992      -0.05777930      -0.27985188
Cr       2.12383008       2.24347403       2.25419891       0.03607988      -0.62449467       0.42148575
Cr       1.15972954       2.19002345       0.04028244      -0.23355708      -0.12050869      -0.34670767
Cr       3.07361963       2.25920377       4.52671851       0.04724059      -0.11486419      -0.32654697
Cr       0.01226969       1.07784312       2.37845104      -0.29613367       0.10166641       0.21227774
Cr       0.08020462       3.20222804       2.44414452      -0.28142527      -0.32876414       0.10139032
Cr       2.04814472       0.09963935       1.03527787       0.49393573       0.48759833       0.04784777
Cr       1.96960411       0.07903842       3.35904088       0.85642970       0.65714628       0.17010498
8
Lattice="4.151697876 0.202804032 -0.310751134 0.134823879 4.207886059 0.121554982 -0.145371719 -0.030572168 4.641215511" Properties=species:S:1:pos:R:3:forces:R:3 generation=8 config_type=A15_aa source_path=/home/myless/Calc_VASP/MRS/job_gen_7-2025-04-10/Cr/Cr8_A15_idx_2861 formula_string=Cr8 composition_str=Cr8 structure_index=2861 date_added_to_db=2025-04-14T00:14:58.247650 structure_id=22556 energy=-72.27508087158203 stress="-0.4484029355273439 0.051395126436736986 -0.06365188374118111 0.051395126436736986 -0.4042725387395692 0.003728421649928497 -0.06365188374118111 0.003728421649928497 -0.15374789945255954" calculation_info="_JSON {\"calculation_id\": 22551, \"calculator\": \"vasp\", \"calculation_source_path\": \"/home/myless/Calc_VASP/MRS/job_gen_7-2025-04-10/Cr/Cr8_A15_idx_2861\", \"nbands\": 64, \"parser\": \"ase_outcar\", \"potcar\": \"PAW_PBE Cr_pv 02Aug2007\", \"kpoints\": [12, 11, 10], \"date_run\": \"2025.03.19  16:10:45\", \"vasp_version\": \"vasp.6.4.2 20Jul23\", \"resources_used\": {\"nodes\": 1, \"mpi_ranks\": 64, \"gpus_detected\": false, \"threads_per_rank\": 2}, \"calculation_type\": \"static\"}" parent_id=22556 step=9 variance=0.07268352061510086 loss=0.07268352061510086 pbc="T T T"
Cr       0.05264052       0.04642141       0.04421987      -0.67685473      -0.06841762      -0.29494438
Cr       2.12750119       2.24680277       2.25600773       0.03188791      -0.68400049       0.44536120
Cr       1.16321127       2.19145813       0.04378417      -0.27543268      -0.13295883      -0.36602077
Cr       3.07520306       2.26035093       4.53026802       0.07775459      -0.11674814      -0.34941950
Cr       0.01532166       1.08008622       2.37980476      -0.31418157       0.11874189       0.22113235
Cr       0.08331871       3.20610013       2.44596486      -0.31015205      -0.36644033       0.10334928
Cr       2.04757815       0.09860187       1.03637912       0.55006516       0.53759843       0.06150717
Cr       1.96840202       0.07725944       3.36054457       0.91691351       0.71222496       0.17903464
8
Lattice="4.151697876 0.202804032 -0.310751134 0.134823879 4.207886059 0.121554982 -0.145371719 -0.030572168 4.641215511" Properties=species:S:1:pos:R:3:forces:R:3 generation=8 config_type=A15_aa source_path=/home/myless/Calc_VASP/MRS/job_gen_7-2025-04-10/Cr/Cr8_A15_idx_2861 formula_string=Cr8 composition_str=Cr8 structure_index=2861 date_added_to_db=2025-04-14T00:14:58.247650 structure_id=22556 energy=-72.26309051513672 stress="-0.4484029355273439 0.051395126436736986 -0.06365188374118111 0.051395126436736986 -0.4042725387395692 0.003728421649928497 -0.06365188374118111 0.003728421649928497 -0.15374789945255954" calculation_info="_JSON {\"calculation_id\": 22551, \"calculator\": \"vasp\", \"calculation_source_path\": \"/home/myless/Calc_VASP/MRS/job_gen_7-2025-04-10/Cr/Cr8_A15_idx_2861\", \"nbands\": 64, \"parser\": \"ase_outcar\", \"potcar\": \"PAW_PBE Cr_pv 02Aug2007\", \"kpoints\": [12, 11, 10], \"date_run\": \"2025.03.19  16:10:45\", \"vasp_version\": \"vasp.6.4.2 20Jul23\", \"resources_used\": {\"nodes\": 1, \"mpi_ranks\": 64, \"gpus_detected\": false, \"threads_per_rank\": 2}, \"calculation_type\": \"static\"}" parent_id=22556 step=10 variance=0.06694932281970978 loss=0.06694932281970978 pbc="T T T"
Cr       0.05527431       0.04870616       0.04602060      -0.72430724      -0.07843561      -0.30714601
Cr       2.13082057       2.24977342       2.25775626       0.02725152      -0.73683023       0.46440130
Cr       1.16630869       2.19272107       0.04688788      -0.31235790      -0.14359194      -0.38188490
Cr       3.07662147       2.26134558       4.53340449       0.10525720      -0.11767469      -0.36825201
Cr       0.01803536       1.08224907       2.38109319      -0.32930809       0.12938066       0.22773662
Cr       0.08609375       3.20945457       2.44762000      -0.33525103      -0.39578655       0.10448936
Cr       2.04712943       0.09770265       1.03738580       0.59921616       0.58198822       0.07372392
Cr       1.96739798       0.07569271       3.36191306       0.96949959       0.76095009       0.18693168
8
Lattice="4.151697876 0.202804032 -0.310751134 0.134823879 4.207886059 0.121554982 -0.145371719 -0.030572168 4.641215511" Properties=species:S:1:pos:R:3:forces:R:3 generation=8 config_type=A15_aa source_path=/home/myless/Calc_VASP/MRS/job_gen_7-2025-04-10/Cr/Cr8_A15_idx_2861 formula_string=Cr8 composition_str=Cr8 structure_index=2861 date_added_to_db=2025-04-14T00:14:58.247650 structure_id=22556 energy=-72.25191345214844 stress="-0.4484029355273439 0.051395126436736986 -0.06365188374118111 0.051395126436736986 -0.4042725387395692 0.003728421649928497 -0.06365188374118111 0.003728421649928497 -0.15374789945255954" calculation_info="_JSON {\"calculation_id\": 22551, \"calculator\": \"vasp\", \"calculation_source_path\": \"/home/myless/Calc_VASP/MRS/job_gen_7-2025-04-10/Cr/Cr8_A15_idx_2861\", \"nbands\": 64, \"parser\": \"ase_outcar\", \"potcar\": \"PAW_PBE Cr_pv 02Aug2007\", \"kpoints\": [12, 11, 10], \"date_run\": \"2025.03.19  16:10:45\", \"vasp_version\": \"vasp.6.4.2 20Jul23\", \"resources_used\": {\"nodes\": 1, \"mpi_ranks\": 64, \"gpus_detected\": false, \"threads_per_rank\": 2}, \"calculation_type\": \"static\"}" parent_id=22556 step=11 variance=0.06280477344989777 loss=0.06280477344989777 pbc="T T T"
Cr       0.05763335       0.05077186       0.04762177      -0.76595628      -0.08788143      -0.31705648
Cr       2.13383280       2.25243546       2.25943643       0.02230372      -0.78392363       0.47957659
Cr       1.16907421       2.19383766       0.04965211      -0.34495431      -0.15266688      -0.39497486
Cr       3.07790125       2.26221148       4.53618874       0.12998997      -0.11784457      -0.38380060
Cr       0.02045825       1.08432431       2.38231524      -0.34200183       0.13503888       0.23259214
Cr       0.08857717       3.21237774       2.44912707      -0.35722029      -0.41852316       0.10503902
Cr       2.04677549       0.09692016       1.03830976       0.64243805       0.62154692       0.08468721
Cr       1.96655908       0.07430706       3.36316199       1.01540089       0.80425388       0.19393691
8
Lattice="4.151697876 0.202804032 -0.310751134 0.134823879 4.207886059 0.121554982 -0.145371719 -0.030572168 4.641215511" Properties=species:S:1:pos:R:3:forces:R:3 generation=8 config_type=A15_aa source_path=/home/myless/Calc_VASP/MRS/job_gen_7-2025-04-10/Cr/Cr8_A15_idx_2861 formula_string=Cr8 composition_str=Cr8 structure_index=2861 date_added_to_db=2025-04-14T00:14:58.247650 structure_id=22556 energy=-72.24156951904297 stress="-0.4484029355273439 0.051395126436736986 -0.06365188374118111 0.051395126436736986 -0.4042725387395692 0.003728421649928497 -0.06365188374118111 0.003728421649928497 -0.15374789945255954" calculation_info="_JSON {\"calculation_id\": 22551, \"calculator\": \"vasp\", \"calculation_source_path\": \"/home/myless/Calc_VASP/MRS/job_gen_7-2025-04-10/Cr/Cr8_A15_idx_2861\", \"nbands\": 64, \"parser\": \"ase_outcar\", \"potcar\": \"PAW_PBE Cr_pv 02Aug2007\", \"kpoints\": [12, 11, 10], \"date_run\": \"2025.03.19  16:10:45\", \"vasp_version\": \"vasp.6.4.2 20Jul23\", \"resources_used\": {\"nodes\": 1, \"mpi_ranks\": 64, \"gpus_detected\": false, \"threads_per_rank\": 2}, \"calculation_type\": \"static\"}" parent_id=22556 step=12 variance=0.05972437933087349 loss=0.05972437933087349 pbc="T T T"
Cr       0.05975321       0.05264495       0.04905032      -0.80260324      -0.09678255      -0.32507452
Cr       2.13657489       2.25482870       2.26104466       0.01713132      -0.82603675       0.49158996
Cr       1.17155034       2.19482783       0.05212303      -0.37375423      -0.16040486      -0.40578669
Cr       3.07906215       2.26296748       4.53866837       0.15221009      -0.11744126      -0.39662570
Cr       0.02262831       1.08630792       2.38347290      -0.35265037       0.13679057       0.23603582
Cr       0.09080696       3.21493597       2.45050127      -0.37645426      -0.43592349       0.10513860
Cr       2.04650048       0.09623695       1.03916000       0.68052924       0.65689164       0.09454137
Cr       1.96585963       0.07307662       3.36430352       1.05559146       0.84290665       0.20018104
8