117
Lattice="8.535340639 0.0 0.0 0.0 11.380454186 0.0 0.0 0.0 14.225567732" Properties=species:S:1:pos:R:3 REF_energy=-1094.8750554 REF_stress="-0.0015125236310026676 -0.00030062228704816715 -0.001466842025710328 -0.00030062228704816715 -0.00461909748521029 0.0014221590618781299 -0.001466842025710328 0.0014221590618781299 -0.0019115994830025175" generation=7 source_path=V-Cr-Ti-W-Zr/Fixed_Engrads/vcrtiwzr_fin_engrads/job_gen_7-2025-02-12/Cr/Cr117_tri-vacancy_idx_3427 date_processed=2025-02-12T16:43:40.980844 structure_id=20196 structure_name=struct_id_20196 variance=0.0098640201613307 energy=-1094.5918375651042 probability=1.0 loss=0.0098640201613307 pbc="T T T"
Cr       1.49318000       1.41395000       1.36705000
Cr       1.39373000       4.28212000       1.50082000
Cr       2.93771000       2.88650000       2.78519000
Cr       2.79221000       5.67156000       2.87815000
Cr       8.51629000       5.65550000       2.89072000
Cr       0.02289000       2.98438000       2.82852000
Cr       4.16082000       4.22881000       6.91203000
Cr       2.97581000       0.07948000       5.76200000
Cr       4.43991000       1.32387000       1.48039000
Cr       4.30586000       4.13912000       1.37676000
Cr       7.38074000       1.32836000       1.06527000
Cr       7.13764000       4.21643000       1.43286000
Cr       5.84946000       2.76507000       2.85250000
Cr       5.55791000       2.87284000       5.66351000
Cr       8.42369000       5.79410000       5.76424000
Cr       0.00726000       2.97661000       5.61767000
Cr       0.11091000       5.78760000       0.00326000
Cr       4.35103000       1.31467000       4.09913000
Cr       1.44520000       1.41626000       4.15170000
Cr       1.44477000       4.37690000       4.22744000
Cr       2.78861000       2.89045000       5.73549000
Cr       2.79546000       5.64968000       5.68155000
Cr       4.27807000       4.21257000       4.17152000
Cr       8.49048000       0.07222000       5.62514000
Cr       1.31779000       4.33484000       7.07520000
Cr       4.28121000       1.54123000       7.16476000
Cr       5.64985000       0.00429000       5.61610000
Cr       6.97305000       4.35052000       7.01044000
Cr       5.58981000       5.69756000       5.60141000
Cr       7.02572000       4.32731000       4.26617000
Cr       7.18616000       1.33507000       4.01661000
Cr       1.41840000       1.56558000       7.03945000
Cr       7.01941000       1.48811000       7.04491000
Cr       1.24433000       1.46176000       9.79621000
Cr       1.38775000       4.29423000       9.98112000
Cr       2.87445000       2.94308000       8.53399000
Cr       5.77324000       0.02781000      11.40904000
Cr       4.27860000       4.25062000       9.95888000
Cr       4.26771000       1.51101000      10.02936000
Cr       0.06751000       2.85774000       8.62222000
Cr       7.10807000       1.52509000      10.02784000
Cr       5.67819000       2.93927000       8.56305000
Cr       7.11759000       4.28413000       9.82435000
Cr       5.64519000       5.64900000       8.55010000
Cr       2.87098000       5.69346000      11.34740000
Cr       8.44617000       2.83604000      11.54151000
Cr       8.53057000       5.49495000      11.27415000
Cr       2.70270000       2.83558000      11.37054000
Cr       1.21593000       1.35743000      13.22134000
Cr       1.44336000       4.30787000      12.85598000
Cr       4.14736000       1.49186000      12.78765000
Cr       5.64337000       2.79698000      11.52418000
Cr       7.05599000       1.50005000      12.85286000
Cr       0.05955000      11.25104000      11.34910000
Cr       4.26149000       4.25669000      12.87572000
Cr       7.21879000       4.22394000      12.85857000
Cr       2.99432000       0.17829000       8.47244000
Cr       5.86783000      11.31763000       8.65698000
Cr       2.70747000       2.84722000       0.04324000
Cr       5.68585000       2.80076000       0.05235000
Cr       1.41290000       7.17086000       1.46688000
Cr       1.34865000       9.93655000       1.45045000
Cr       2.71032000       8.44403000       2.87616000
Cr       4.25609000       9.79416000       1.50357000
Cr       8.47490000       8.44860000      14.14391000
Cr       5.73823000       5.61393000       2.72590000
Cr       5.59239000      11.34329000      14.15065000
Cr       4.19635000       7.09757000       1.43340000
Cr       8.51994000       8.53759000       2.79418000
Cr       7.08752000       7.14159000       1.48080000
Cr       7.05779000       9.93181000       1.50531000
Cr       5.69421000       8.55176000       2.86837000
Cr       5.75855000       8.59348000      14.16867000
Cr       5.77464000      11.30006000       2.76358000
Cr       4.32629000       9.83730000       4.36618000
Cr       4.19630000       7.00392000       4.19280000
Cr       1.49121000       7.11810000       4.33552000
Cr       1.52300000      10.03445000       4.35837000
Cr       2.72793000       8.42245000       5.78840000
Cr       2.86387000      11.32587000       2.80088000
Cr       7.17239000       9.93771000       4.28094000
Cr       8.43542000       8.50132000       5.65576000
Cr       7.16182000       6.97457000       4.31318000
Cr       7.05979000      10.06992000       7.23568000
Cr       5.64038000       8.41822000       5.58271000
Cr       4.25062000       9.92127000       7.19685000
Cr       5.68239000       5.65338000      14.15547000
Cr       2.85582000      11.30586000       0.15162000
Cr       1.42735000       7.10738000       9.86607000
Cr       1.56772000       9.98979000       9.92708000
Cr       2.85129000       8.50066000       8.53572000
Cr       4.36912000       9.89680000      10.06768000
Cr       2.75897000       0.01662000      11.38992000
Cr       4.20470000       7.06530000      10.00864000
Cr       2.91352000       5.68880000       8.58732000
Cr       5.73988000       8.52348000      11.37036000
Cr       1.31300000       9.95825000       7.04112000
Cr       8.52399000       8.67435000       8.62223000
Cr       8.48773000       5.74525000       8.53706000
Cr       5.82177000       5.65340000      11.35830000
Cr       7.17070000       7.09050000       9.92092000
Cr       5.69936000       8.49876000       8.63095000
Cr       7.17454000       9.91180000      10.07438000
Cr       0.01214000       0.11800000       8.51264000
Cr       7.12929000       7.05446000      12.82901000
Cr       4.25558000       7.00947000      12.80739000
Cr       1.48969000       7.11523000      12.71207000
Cr       1.67587000      10.01962000      12.75254000
Cr       2.91663000       8.53237000      11.45790000
Cr       4.25055000       9.98425000      12.81319000
Cr       7.18100000      10.04249000      12.79604000
Cr       0.15412000       8.39755000      11.33338000
Cr       2.81185000       8.63058000      14.16063000
Cr       2.80666000       5.77159000       0.05145000
Cr       4.18308000       7.08605000       7.05002000
Cr       7.08624000       7.22660000       7.19308000
Cr       1.27900000       7.25524000       7.22187000
117
Lattice="8.535340639 0.0 0.0 0.0 11.380454186 0.0 0.0 0.0 14.225567732" Properties=species:S:1:pos:R:3 REF_energy=-1094.8750554 REF_stress="-0.0015125236310026676 -0.00030062228704816715 -0.001466842025710328 -0.00030062228704816715 -0.00461909748521029 0.0014221590618781299 -0.001466842025710328 0.0014221590618781299 -0.0019115994830025175" generation=7 source_path=V-Cr-Ti-W-Zr/Fixed_Engrads/vcrtiwzr_fin_engrads/job_gen_7-2025-02-12/Cr/Cr117_tri-vacancy_idx_3427 date_processed=2025-02-12T16:43:40.980844 structure_id=20196 structure_name=struct_id_20196 variance=0.0098640201613307 energy=-1094.5918375651042 probability=1.0 loss=0.0098640201613307 step=0 pbc="T T T"
Cr       1.49318000       1.41395000       1.36705000
Cr       1.39373000       4.28212000       1.50082000
Cr       2.93771000       2.88650000       2.78519000
Cr       2.79221000       5.67156000       2.87815000
Cr       8.51629000       5.65550000       2.89072000
Cr       0.02289000       2.98438000       2.82852000
Cr       4.16082000       4.22881000       6.91203000
Cr       2.97581000       0.07948000       5.76200000
Cr       4.43991000       1.32387000       1.48039000
Cr       4.30586000       4.13912000       1.37676000
Cr       7.38074000       1.32836000       1.06527000
Cr       7.13764000       4.21643000       1.43286000
Cr       5.84946000       2.76507000       2.85250000
Cr       5.55791000       2.87284000       5.66351000
Cr       8.42369000       5.79410000       5.76424000
Cr       0.00726000       2.97661000       5.61767000
Cr       0.11091000       5.78760000       0.00326000
Cr       4.35103000       1.31467000       4.09913000
Cr       1.44520000       1.41626000       4.15170000
Cr       1.44477000       4.37690000       4.22744000
Cr       2.78861000       2.89045000       5.73549000
Cr       2.79546000       5.64968000       5.68155000
Cr       4.27807000       4.21257000       4.17152000
Cr       8.49048000       0.07222000       5.62514000
Cr       1.31779000       4.33484000       7.07520000
Cr       4.28121000       1.54123000       7.16476000
Cr       5.64985000       0.00429000       5.61610000
Cr       6.97305000       4.35052000       7.01044000
Cr       5.58981000       5.69756000       5.60141000
Cr       7.02572000       4.32731000       4.26617000
Cr       7.18616000       1.33507000       4.01661000
Cr       1.41840000       1.56558000       7.03945000
Cr       7.01941000       1.48811000       7.04491000
Cr       1.24433000       1.46176000       9.79621000
Cr       1.38775000       4.29423000       9.98112000
Cr       2.87445000       2.94308000       8.53399000
Cr       5.77324000       0.02781000      11.40904000
Cr       4.27860000       4.25062000       9.95888000
Cr       4.26771000       1.51101000      10.02936000
Cr       0.06751000       2.85774000       8.62222000
Cr       7.10807000       1.52509000      10.02784000
Cr       5.67819000       2.93927000       8.56305000
Cr       7.11759000       4.28413000       9.82435000
Cr       5.64519000       5.64900000       8.55010000
Cr       2.87098000       5.69346000      11.34740000
Cr       8.44617000       2.83604000      11.54151000
Cr       8.53057000       5.49495000      11.27415000
Cr       2.70270000       2.83558000      11.37054000
Cr       1.21593000       1.35743000      13.22134000
Cr       1.44336000       4.30787000      12.85598000
Cr       4.14736000       1.49186000      12.78765000
Cr       5.64337000       2.79698000      11.52418000
Cr       7.05599000       1.50005000      12.85286000
Cr       0.05955000      11.25104000      11.34910000
Cr       4.26149000       4.25669000      12.87572000
Cr       7.21879000       4.22394000      12.85857000
Cr       2.99432000       0.17829000       8.47244000
Cr       5.86783000      11.31763000       8.65698000
Cr       2.70747000       2.84722000       0.04324000
Cr       5.68585000       2.80076000       0.05235000
Cr       1.41290000       7.17086000       1.46688000
Cr       1.34865000       9.93655000       1.45045000
Cr       2.71032000       8.44403000       2.87616000
Cr       4.25609000       9.79416000       1.50357000
Cr       8.47490000       8.44860000      14.14391000
Cr       5.73823000       5.61393000       2.72590000
Cr       5.59239000      11.34329000      14.15065000
Cr       4.19635000       7.09757000       1.43340000
Cr       8.51994000       8.53759000       2.79418000
Cr       7.08752000       7.14159000       1.48080000
Cr       7.05779000       9.93181000       1.50531000
Cr       5.69421000       8.55176000       2.86837000
Cr       5.75855000       8.59348000      14.16867000
Cr       5.77464000      11.30006000       2.76358000
Cr       4.32629000       9.83730000       4.36618000
Cr       4.19630000       7.00392000       4.19280000
Cr       1.49121000       7.11810000       4.33552000
Cr       1.52300000      10.03445000       4.35837000
Cr       2.72793000       8.42245000       5.78840000
Cr       2.86387000      11.32587000       2.80088000
Cr       7.17239000       9.93771000       4.28094000
Cr       8.43542000       8.50132000       5.65576000
Cr       7.16182000       6.97457000       4.31318000
Cr       7.05979000      10.06992000       7.23568000
Cr       5.64038000       8.41822000       5.58271000
Cr       4.25062000       9.92127000       7.19685000
Cr       5.68239000       5.65338000      14.15547000
Cr       2.85582000      11.30586000       0.15162000
Cr       1.42735000       7.10738000       9.86607000
Cr       1.56772000       9.98979000       9.92708000
Cr       2.85129000       8.50066000       8.53572000
Cr       4.36912000       9.89680000      10.06768000
Cr       2.75897000       0.01662000      11.38992000
Cr       4.20470000       7.06530000      10.00864000
Cr       2.91352000       5.68880000       8.58732000
Cr       5.73988000       8.52348000      11.37036000
Cr       1.31300000       9.95825000       7.04112000
Cr       8.52399000       8.67435000       8.62223000
Cr       8.48773000       5.74525000       8.53706000
Cr       5.82177000       5.65340000      11.35830000
Cr       7.17070000       7.09050000       9.92092000
Cr       5.69936000       8.49876000       8.63095000
Cr       7.17454000       9.91180000      10.07438000
Cr       0.01214000       0.11800000       8.51264000
Cr       7.12929000       7.05446000      12.82901000
Cr       4.25558000       7.00947000      12.80739000
Cr       1.48969000       7.11523000      12.71207000
Cr       1.67587000      10.01962000      12.75254000
Cr       2.91663000       8.53237000      11.45790000
Cr       4.25055000       9.98425000      12.81319000
Cr       7.18100000      10.04249000      12.79604000
Cr       0.15412000       8.39755000      11.33338000
Cr       2.81185000       8.63058000      14.16063000
Cr       2.80666000       5.77159000       0.05145000
Cr       4.18308000       7.08605000       7.05002000
Cr       7.08624000       7.22660000       7.19308000
Cr       1.27900000       7.25524000       7.22187000
117
Lattice="8.535340639 0.0 0.0 0.0 11.380454186 0.0 0.0 0.0 14.225567732" Properties=species:S:1:pos:R:3 REF_energy=-1094.8750554 REF_stress="-0.0015125236310026676 -0.00030062228704816715 -0.001466842025710328 -0.00030062228704816715 -0.00461909748521029 0.0014221590618781299 -0.001466842025710328 0.0014221590618781299 -0.0019115994830025175" generation=7 source_path=V-Cr-Ti-W-Zr/Fixed_Engrads/vcrtiwzr_fin_engrads/job_gen_7-2025-02-12/Cr/Cr117_tri-vacancy_idx_3427 date_processed=2025-02-12T16:43:40.980844 structure_id=20196 structure_name=struct_id_20196 variance=0.01291671209037304 energy=-1094.554931640625 probability=1.0 loss=0.01291671209037304 step=1 pbc="T T T"
Cr       1.50317997       1.40396073       1.35705005
Cr       1.38373002       4.27212005       1.49082002
Cr       2.92771002       2.87650005       2.77519002
Cr       2.78221005       5.66156006       2.86815004
Cr       8.50629003       5.64550003       2.88072002
Cr       0.01289002       2.99437990       2.81852002
Cr       4.15082003       4.21881004       6.90203001
Cr       2.96581003       0.06948002       5.75200010
Cr       4.42991001       1.31387001       1.49038998
Cr       4.29586004       4.12912002       1.36676002
Cr       7.39073999       1.31836001       1.07526999
Cr       7.12764003       4.20643001       1.42286001
Cr       5.83946017       2.77506986       2.84250003
Cr       5.54791002       2.88283993       5.65351007
Cr       8.41369003       5.78410004       5.75424002
Cr      -0.00273998       2.96661006       5.60767002
Cr       0.10091003       5.77760002      -0.00673991
Cr       4.34103003       1.30467001       4.08913003
Cr       1.43520015       1.42625998       4.14170002
Cr       1.43477007       4.36690001       4.21744002
Cr       2.77861003       2.88045002       5.72549003
Cr       2.78546003       5.63968010       5.67155003
Cr       4.26807001       4.20257002       4.16152005
Cr       8.50047999       0.08221998       5.63513999
Cr       1.30779002       4.32484077       7.06520005
Cr       4.27121004       1.53123002       7.15476003
Cr       5.65984997      -0.00570998       5.60610001
Cr       6.96305003       4.34052002       7.00044002
Cr       5.57981005       5.68756003       5.59141004
Cr       7.01572009       4.31731002       4.25617003
Cr       7.17616001       1.34506999       4.00661003
Cr       1.40840008       1.55558003       7.02945004
Cr       7.00941001       1.47811014       7.03491002
Cr       1.23433002       1.45176005       9.78621002
Cr       1.39774993       4.28423002       9.97112003
Cr       2.86445001       2.93308002       8.52399002
Cr       5.76324002       0.01781001      11.39904002
Cr       4.26860001       4.26061999       9.96887999
Cr       4.25771002       1.50101002      10.01936002
Cr       0.05751003       2.84774002       8.61222010
Cr       7.09807004       1.51509003      10.01784002
Cr       5.66819009       2.92927002       8.55305002
Cr       7.12758988       4.27413003       9.81435004
Cr       5.63519003       5.63900003       8.54010002
Cr       2.88097976       5.68346002      11.33740002
Cr       8.45616923       2.84603992      11.53151004
Cr       8.52057002       5.48495002      11.26415003
Cr       2.69270002       2.82558005      11.36054007
Cr       1.20593003       1.36742992      13.21134002
Cr       1.43336004       4.29787001      12.84598002
Cr       4.13736001       1.48186001      12.77765001
Cr       5.65336928       2.80697990      11.53417977
Cr       7.06598996       1.49005001      12.84286001
Cr       0.04955003      11.24104004      11.33910002
Cr       4.25149006       4.24669002      12.86572004
Cr       7.20879001       4.21394001      12.86856997
Cr       2.98432002       0.16829004       8.46244004
Cr       5.85783004      11.30763002       8.64698008
Cr       2.69747001       2.85721923       0.03324003
Cr       5.69584999       2.81076000       0.04235001
Cr       1.42289977       7.16086001       1.45688002
Cr       1.33865001       9.94654999       1.46044946
Cr       2.70032003       8.43403002       2.86616006
Cr       4.26608999       9.78416002       1.49357005
Cr       8.46490002       8.43860012      14.13391002
Cr       5.72823003       5.60393001       2.71590002
Cr       5.58239001      11.33329000      14.14065001
Cr       4.20634821       7.08757002       1.42340003
Cr       8.52993999       8.52759000       2.78418002
Cr       7.07752002       7.13159004       1.47080004
Cr       7.04779002       9.92181001       1.49531001
Cr       5.70420996       8.56175999       2.87836995
Cr       5.74855003       8.60347996      14.15867002
Cr       5.76464001      11.31005990       2.77357999
Cr       4.33629000       9.82730002       4.35618007
Cr       4.18630004       6.99392002       4.18280004
Cr       1.48121004       7.10810006       4.32552009
Cr       1.53299999      10.02445002       4.34837016
Cr       2.71793001       8.41245002       5.77840002
Cr       2.85387005      11.31587003       2.79088002
Cr       7.16239000       9.92771000       4.29094000
Cr       8.42542001       8.51131992       5.64576001
Cr       7.15182008       6.98456999       4.30318002
Cr       7.04979002      10.05992002       7.22568000
Cr       5.65037999       8.42821999       5.57271000
Cr       4.26061987       9.93126997       7.18685001
Cr       5.67239002       5.64338000      14.14547029
Cr       2.84582003      11.29586002       0.14162002
Cr       1.41735003       7.09738003       9.85607002
Cr       1.55772002       9.97979003       9.91708006
Cr       2.84129002       8.49066006       8.52572002
Cr       4.35912002       9.88680004      10.05768003
Cr       2.74897002       0.00662002      11.37992003
Cr       4.19470006       7.05530002       9.99864003
Cr       2.90352003       5.67880002       8.57732005
Cr       5.72988004       8.51348008      11.36036004
Cr       1.30300009       9.94825001       7.03112002
Cr       8.51399003       8.66435004       8.61223003
Cr       8.47773003       5.73525002       8.52706002
Cr       5.81177005       5.64340001      11.34830007
Cr       7.16070003       7.08050003       9.91092012
Cr       5.68936003       8.48876011       8.62095004
Cr       7.16454003       9.90180002      10.06438002
Cr       0.00214008       0.10800003       8.50264004
Cr       7.11929003       7.04446005      12.81901001
Cr       4.24558004       6.99947002      12.79739003
Cr       1.47969003       7.10523002      12.70207002
Cr       1.66587010      10.00962003      12.74254002
Cr       2.90663002       8.52237002      11.44790004
Cr       4.24055005       9.97425003      12.80319004
Cr       7.17100002      10.03249002      12.78604002
Cr       0.14412002       8.38755003      11.32338003
Cr       2.80185007       8.62058002      14.15063002
Cr       2.79666003       5.76159002       0.04145004
Cr       4.17308005       7.07605005       7.04002002
Cr       7.07624003       7.21660006       7.18308002
Cr       1.26900005       7.24524002       7.21187003
117
Lattice="8.535340639 0.0 0.0 0.0 11.380454186 0.0 0.0 0.0 14.225567732" Properties=species:S:1:pos:R:3 REF_energy=-1094.8750554 REF_stress="-0.0015125236310026676 -0.00030062228704816715 -0.001466842025710328 -0.00030062228704816715 -0.00461909748521029 0.0014221590618781299 -0.001466842025710328 0.0014221590618781299 -0.0019115994830025175" generation=7 source_path=V-Cr-Ti-W-Zr/Fixed_Engrads/vcrtiwzr_fin_engrads/job_gen_7-2025-02-12/Cr/Cr117_tri-vacancy_idx_3427 date_processed=2025-02-12T16:43:40.980844 structure_id=20196 structure_name=struct_id_20196 variance=0.015083557926118374 energy=-1094.4921061197917 probability=1.0 loss=0.015083557926118374 step=2 pbc="T T T"
Cr       1.51199371       1.39649224       1.34718046
Cr       1.37482166       4.26217361       1.48080792
Cr       2.92073404       2.86705546       2.77461658
Cr       2.77402288       5.66047270       2.85864637
Cr       8.49635084       5.63690449       2.87554289
Cr       0.00398866       2.99035850       2.81286468
Cr       4.14252114       4.20920309       6.90208605
Cr       2.96600945       0.06190500       5.74334461
Cr       4.42074533       1.30683368       1.49597026
Cr       4.28713514       4.12980372       1.36425971
Cr       7.40066076       1.30916019       1.08497907
Cr       7.13298925       4.20810327       1.41942965
Cr       5.84371426       2.76842315       2.84872000
Cr       5.53868838       2.87794762       5.64485285
Cr       8.40368377       5.77755218       5.74535788
Cr      -0.01144799       2.96600105       5.59909703
Cr       0.09089863       5.76991849      -0.00441339
Cr       4.34723681       1.29517637       4.08068539
Cr       1.43946695       1.43575029       4.14238071
Cr       1.42887483       4.35901028       4.20862823
Cr       2.77054790       2.87097715       5.71547932
Cr       2.77736332       5.64455078       5.66221053
Cr       4.25822864       4.19831259       4.15657173
Cr       8.50024571       0.07708004       5.63339662
Cr       1.30538875       4.31720413       7.06795634
Cr       4.26200827       1.53119286       7.15129619
Cr       5.66973833      -0.01571965       5.59682983
Cr       6.96473150       4.33115069       6.99043003
Cr       5.58104031       5.67776094       5.58139702
Cr       7.01958786       4.31625747       4.24643598
Cr       7.16765627       1.33964965       4.00521102
Cr       1.40275044       1.54578280       7.02114908
Cr       7.00472338       1.47024254       7.02489650
Cr       1.23748177       1.45729054       9.77644422
Cr       1.40538908       4.27433567       9.96119604
Cr       2.86950105       2.93873968       8.52962577
Cr       5.75395586       0.01074209      11.39396151
Cr       4.26066311       4.25351064       9.96428687
Cr       4.24803480       1.50737825      10.00953457
Cr       0.05199758       2.84059092       8.60267170
Cr       7.09691682       1.50578765      10.00806522
Cr       5.67224025       2.91972641       8.54661231
Cr       7.13514886       4.26451412       9.80473020
Cr       5.64086366       5.64550774       8.53146371
Cr       2.88879636       5.68020741      11.32878078
Cr       8.46411277       2.85289619      11.52251932
Cr       8.51062633       5.47574994      11.25418175
Cr       2.69680790       2.83210761      11.35242739
Cr       1.19592646       1.37727544      13.20261489
Cr       1.43711307       4.28789344      12.83603906
Cr       4.13123972       1.48200251      12.77458947
Cr       5.66089647       2.80130612      11.54171077
Cr       7.07171528       1.48368928      12.83321864
Cr       0.04366933      11.24000234      11.32917628
Cr       4.24148809       4.23667953      12.86924642
Cr       7.20465261       4.20533482      12.87855728
Cr       2.97436019       0.15828262       8.46264489
Cr       5.84785132      11.29894618       8.63885659
Cr       2.68965670       2.86533970       0.02339834
Cr       5.69190298       2.81674468       0.03393707
Cr       1.41708834       7.15086360       1.44713688
Cr       1.32870227       9.95579646       1.45308997
Cr       2.70358704       8.42580499       2.86271293
Cr       4.27251653       9.77476326       1.48498446
Cr       8.45582057       8.42990716      14.12397770
Cr       5.71871115       5.59794099       2.71180635
Cr       5.57255736      11.32601479      14.13132908
Cr       4.21412550       7.07755721       1.41349783
Cr       8.53941941       8.51764840       2.78638247
Cr       7.07196593       7.12303735       1.46194699
Cr       7.05342280       9.91183004       1.48580187
Cr       5.69765391       8.55736451       2.87460252
Cr       5.73853838       8.60042408      14.14904035
Cr       5.75586761      11.31782615       2.78153463
Cr       4.34282891       9.82224693       4.34657953
Cr       4.17636394       6.98397114       4.17310417
Cr       1.47121538       7.09916765       4.31622782
Cr       1.53585664      10.02349543       4.35448429
Cr       2.71128274       8.40324466       5.76954440
Cr       2.85988087      11.30591905       2.79015199
Cr       7.15670090       9.93199289       4.30084936
Cr       8.42440293       8.50468199       5.64285032
Cr       7.14517450       6.97955981       4.29384091
Cr       7.04356557      10.05579357       7.21574154
Cr       5.65043535       8.42660618       5.56628645
Cr       4.25435188       9.94089585       7.17683654
Cr       5.66502077       5.63667177      14.13728101
Cr       2.83955374      11.28634565       0.13160689
Cr       1.41877132       7.09351114       9.84612941
Cr       1.54802371       9.96996088       9.90716379
Cr       2.83447889       8.48065203       8.52040817
Cr       4.34969665       9.87781639      10.04944959
Cr       2.74215573      -0.00096269      11.37603658
Cr       4.18595062       7.06180163       9.99724607
Cr       2.90645781       5.66891136       8.58006762
Cr       5.72280567       8.50378412      11.35796078
Cr       1.29399808       9.94496389       7.02254037
Cr       8.50540504       8.65749999       8.60290447
Cr       8.46906221       5.72657657       8.51751753
Cr       5.81822659       5.64834413      11.35528112
Cr       7.16526830       7.08536977       9.90207341
Cr       5.68198792       8.48000401       8.61860452
Cr       7.16183760       9.89179120      10.05444423
Cr      -0.00717853       0.09815702       8.49852250
Cr       7.11558326       7.04874952      12.81247212
Cr       4.23580348       6.99340953      12.79341360
Cr       1.47605807       7.09712671      12.69276787
Cr       1.65585756      10.00545956      12.74086154
Cr       2.90090700       8.51681575      11.44283230
Cr       4.23504506       9.96518934      12.79318911
Cr       7.16399185      10.02647938      12.78086610
Cr       0.13511942       8.37938932      11.31474194
Cr       2.79199455       8.61449526      14.14138142
Cr       2.78864688       5.75628047       0.03336757
Cr       4.16419007       7.06841050       7.03043138
Cr       7.07288994       7.20749326       7.17602615
Cr       1.26054923       7.23524423       7.21102267
117
Lattice="8.535340639 0.0 0.0 0.0 11.380454186 0.0 0.0 0.0 14.225567732" Properties=species:S:1:pos:R:3 REF_energy=-1094.8750554 REF_stress="-0.0015125236310026676 -0.00030062228704816715 -0.001466842025710328 -0.00030062228704816715 -0.00461909748521029 0.0014221590618781299 -0.001466842025710328 0.0014221590618781299 -0.0019115994830025175" generation=7 source_path=V-Cr-Ti-W-Zr/Fixed_Engrads/vcrtiwzr_fin_engrads/job_gen_7-2025-02-12/Cr/Cr117_tri-vacancy_idx_3427 date_processed=2025-02-12T16:43:40.980844 structure_id=20196 structure_name=struct_id_20196 variance=0.02112349309027195 energy=-1094.381103515625 probability=1.0 loss=0.02112349309027195 step=3 pbc="T T T"
Cr       1.51610253       1.38855335       1.33774303
Cr       1.36688618       4.25516577       1.47112634
Cr       2.91256089       2.86707176       2.77450128
Cr       2.77463157       5.65998871       2.85298496
Cr       8.48853801       5.62798997       2.87138989
Cr      -0.00242072       2.99441614       2.80637610
Cr       4.13665723       4.19963656       6.89718235
Cr       2.96521280       0.05330645       5.74468729
Cr       4.41120713       1.30958257       1.49053112
Cr       4.27889174       4.13312970       1.36259710
Cr       7.40809248       1.30661782       1.09482308
Cr       7.14026403       4.21168520       1.41596637
Cr       5.85046470       2.77409509       2.85159727
Cr       5.53313208       2.87639602       5.64000414
Cr       8.39365859       5.77832530       5.73673301
Cr      -0.01795098       2.97028258       5.59221084
Cr       0.08215525       5.76468754       0.00201210
Cr       4.34397874       1.29522989       4.08250632
Cr       1.44647382       1.44542123       4.14829387
Cr       1.43385457       4.35145393       4.20462581
Cr       2.76175090       2.86182493       5.70571773
Cr       2.77373217       5.65194564       5.65477244
Cr       4.24829486       4.19882060       4.16169032
Cr       8.50364889       0.07092855       5.63517287